ITEM: TIMESTEP
58000
ITEM: NUMBER OF ATOMS
64
ITEM: BOX BOUNDS pp pp pp
0.3513625 13.6646376
0.3513625 13.6646376
0.3513625 13.6646376
ITEM: ATOMS id type x y z fx fy fz
1 1 0.751644 5.2621298 11.0116997 -0.0096055 -0.024135 0.0145305
2 1 1.0901099 1.7886 7.4645 -0.0057096 0.0019223 -0.004095
3 1 8.7532397 6.50733 11.0824003 0.0277807 -0.0601726 -0.029429
4 1 9.9211302 6.7997599 4.2953301 0.0215862 -0.0127097 -0.0466193
5 1 5.3285499 10.7243004 9.5049296 -0.139885 -0.180069 -0.013647
6 1 13.1148005 12.7887001 4.21485 -0.0072002 -0.023951 0.0867161
7 1 11.2973004 6.3263502 7.80332 0.0238938 -0.0352752 0.0186951
8 1 12.3906002 12.6070996 10.1820002 -0.13595 0.0346312 0.0946653
9 1 8.4322701 9.3413096 13.2419996 -0.0084475 0.0368347 -0.0109301
10 1 4.24826 0.438819 11.8912002 -0.0043407 -0.0707497 -0.005483
11 1 8.0353003 2.81632 6.2161999 -0.0227653 -0.115832 0.0795277
12 1 4.95013 8.3941202 0.661582 -0.0664543 0.0748061 0.0074142
13 1 12.0162001 2.6766801 0.412943 -0.0345369 0.0254707 0.0161844
14 1 5.2670698 2.4800899 9.0148296 -0.0310356 -0.0377178 0.0840418
15 1 9.11374 11.1515999 7.2041402 0.0275351 0.0710637 0.0258648
16 1 9.3219996 1.33811 10.9146004 -0.0322014 0.0470827 0.0286573
17 1 3.60165 4.4401498 3.7718501 -0.0070764 0.017458 0.0309658
18 1 6.6551199 5.3780098 0.976015 0.0456612 -0.0615694 0.0199414
19 1 5.32686 6.2396202 9.7363701 0.116885 -0.0493003 -0.126463
20 1 0.438055 8.1433697 5.0222998 0.0013745 0.0047001 -0.0573204
21 1 6.8469802 6.17942 6.1342001 -0.029872 0.025435 0.0118225
22 1 4.9586602 12.8507996 6.3677201 0.0440436 0.026643 -0.0087649
23 1 11.3553 2.6570301 4.6447001 0.0068982 0.0385787 -0.0027343
24 1 0.539649 8.5801697 0.3897 0.0290935 -0.047386 0.0047264
25 1 11.6352997 9.1275997 10.8479996 -0.0361576 -0.0246333 -0.0202971
26 1 3.2684801 12.7393999 2.7427001 0.016357 0.0123516 -0.0040406
27 1 3.29351 3.4233101 13.5562001 -0.0242924 0.0407557 0.0018009
28 1 8.98277 11.0892 3.16344 -0.0352299 0.0188057 -0.0217169
29 1 8.4074803 1.89252 1.4303301 -0.0676922 0.0026672 0.0087266
30 1 2.0176201 7.2998099 8.2128296 -0.0275155 0.0071155 0.0303573
31 1 13.4504996 12.4116001 0.761348 -0.0379598 0.042721 -0.128179
32 1 4.15487 8.7470103 5.7058201 -0.124803 -0.0490656 -0.111492
33 2 6.3823199 2.81107 12.0640001 0.0010548 0.0029846 0.004074
34 2 11.6743002 3.3731699 9.4080801 0.0139529 0.0263777 0.0146834
35 2 2.8213601 10.8458004 13.1114998 0.0065695 0.0078957 -0.0028203
36 2 0.640228 5.0897102 5.6943598 -0.0038661 -0.0045997 0.009268
37 2 9.1302605 13.6134997 4.84228 -0.0301977 -6.0356798e-04 0.0634721
38 2 10.5945997 0.657783 8.2735701 -0.0336186 -0.0134874 -0.0745728
39 2 7.6299901 8.8242998 9.49718 0.0118255 -0.010255 0.0380798
40 2 1.6159101 12.3197003 9.1718597 0.185478 -0.0130169 -0.0717506
41 2 0.936429 1.58256 12.2559004 0.0637284 -0.0294473 -0.0444257
42 2 12.3139 9.2392798 7.4566999 0.0010302 0.0170809 0.0421193
43 2 10.8290997 0.592282 2.39943 0.0873474 -0.0389055 -0.0456721
44 2 8.01019 3.50491 9.0560999 0.0472789 0.0477919 0.0555128
45 2 1.05045 2.5306001 3.51651 -0.0047367 -0.0277769 -0.0045301
46 2 1.1918401 5.45079 1.97001 0.0029778 0.010189 -0.0147856
47 2 9.2713604 4.2704702 13.1206999 -0.0155064 -0.0960221 -0.0477308
48 2 5.1143298 1.7009701 3.76156 0.0217408 -0.0477718 -0.0705356
49 2 3.45238 6.9842502 11.6091995 -0.138293 0.0427804 0.119735
50 2 11.2084999 4.8067298 2.35377 0.0379844 -0.0354805 0.0589721
51 2 11.2384997 10.1627998 0.74569 0.0047406 0.0180436 0.0097199
52 2 7.4972 8.1113997 2.7959399 -0.002039 -0.001151 -0.007135
53 2 4.9450898 3.1972799 6.2870698 -0.0092276 0.0681203 -0.0175456
54 2 2.69292 4.3255601 8.4238901 0.0050877 -0.0031237 0.0204707
55 2 6.7395501 13.0337 9.79601 0.0504929 0.23719 -0.0077185
56 2 8.42239 4.0498099 3.72909 -7.7498598e-04 0.05953 -0.108842
57 2 1.2116 10.4681998 2.6199999 0.0120971 -0.0495942 0.0810377
58 2 6.46344 9.8072796 6.7358799 0.105698 0.0880471 0.0381888
59 2 2.5123201 11.3139 5.6617999 -0.0471587 -5.11203e-04 -0.0172736
60 2 5.6722002 11.0129995 3.5504101 0.010125 -0.0107775 0.0157577
61 2 9.1824503 11.6068001 10.6931 0.0785045 -0.0658834 0.0173849
62 2 10.2751999 6.9344502 0.475998 0.0198921 0.133066 -0.0101448
63 2 9.1674299 8.2479 6.85465 0.0132274 -0.0574747 -0.0228908
64 2 11.1215 9.5897703 4.4682002 0.0322061 0.0103095 0.0064709
