ITEM: TIMESTEP
60000
ITEM: NUMBER OF ATOMS
64
ITEM: BOX BOUNDS pp pp pp
0.1929775 13.8230229
0.1929775 13.8230229
0.1929775 13.8230229
ITEM: ATOMS id type x y z fx fy fz
1 1 1.3998 3.9516202 10.6300001 -0.0148588 -0.110056 0.0762269
2 1 1.13124 2.3966999 6.8481898 0.0056686 0.008355 -0.0071856
3 1 11.276 5.87492 10.9787998 0.0076417 0.0636537 -0.138692
4 1 10.0372 7.5647202 2.0775101 -0.0401171 -0.0311014 0.0509166
5 1 4.6764202 9.6522303 10.5312996 -0.10198 0.0146586 0.0576124
6 1 13.1374998 12.3957996 6.1809001 0.0145262 -0.0219062 0.012219
7 1 10.5495997 5.9101 5.7890802 -0.0509382 0.0615896 0.0210372
8 1 12.2532997 0.550684 10.0718002 0.0441479 0.0620078 0.0248209
9 1 6.6598201 8.9290104 0.445373 -0.0014448 0.0135683 -0.0568132
10 1 5.8588 13.2060003 13.4684 0.0085454 -0.0091092 0.0093213
11 1 7.4960399 2.73855 7.3912301 0.0735387 -0.0180347 -0.0324978
12 1 3.33951 8.5187197 2.53666 0.0169223 0.0024497 0.0056116
13 1 12.9035998 2.9723202 1.5491001 0.0245995 -0.0021396 0.0191455
14 1 4.4632101 2.62094 9.2559796 0.0028985 -0.0100981 0.00512
15 1 9.0872803 11.3762999 6.7601199 -0.0078798 0.0206422 0.0194269
16 1 9.1865301 2.1034901 12.2299004 0.0169026 0.0776698 0.0399406
17 1 2.3192599 4.92829 4.17559 -0.0652752 1.7445799e-04 -0.122969
18 1 7.5562802 4.8270302 0.455544 0.0254314 0.0676397 0.076931
19 1 6.7069102 6.5176201 10.5272999 0.0241529 -0.0038317 -3.97861e-04
20 1 13.5356999 8.07794 3.79932 -0.0189071 5.2660203e-05 0.0044812
21 1 6.4225502 5.7059999 5.6900101 0.0236453 0.056998 -0.039451
22 1 4.2611699 12.8286 7.5537701 -0.0183822 -0.0381851 -0.0153813
23 1 11.2129002 1.54457 4.7480002 -0.0494925 -0.0614805 -0.0372595
24 1 1.84323 8.2617397 12.889 -0.0327448 -0.0343871 -0.0102896
25 1 11.2173004 10.9975996 11.1091003 -0.0343174 -0.0768599 0.0241852
26 1 4.3838802 13.0753002 3.6359701 -0.0255176 0.0084134 -0.0159017
27 1 3.64643 3.6154101 0.456175 -0.0724268 -0.0087754 -0.0640089
28 1 8.2439003 10.8936006 3.2143099 0.0171294 -0.005885 -0.0543629
29 1 8.1477203 1.3969801 2.51616 0.0047076 0.0152997 -0.0207496
30 1 1.02492 7.05335 9.3552504 -0.0209958 0.138554 0.0797122
31 1 1.39586 12.2713003 0.989816 -0.0147682 0.022831 -0.0208442
32 1 3.43239 8.3150597 6.9199 0.0267944 0.002686 -0.0425151
33 2 6.0753598 3.7399199 11.8800002 -0.0419431 -0.041973 -0.0607713
34 2 12.9406004 4.4247899 8.4092302 -0.0360983 -0.0141852 0.0156001
35 2 3.68693 10.5653 13.4961005 0.0467871 0.0055264 0.008912
36 2 0.783758 6.47894 6.6243902 -0.0031835 -0.0019663 -0.168728
37 2 7.1641202 13.2046003 4.7418399 0.0123232 0.0168168 0.0579416
38 2 10.7559004 1.07016 7.6314001 -0.0441698 -0.0012354 -0.0163172
39 2 7.5921102 9.6644802 10.8644 0.0674624 0.0056663 0.0457435
40 2 1.6201 10.7089005 7.96697 0.0108532 -4.4338999e-04 -0.001965
41 2 4.7523399 12.7054997 10.6323004 -0.015231 0.0088042 0.0094817
42 2 9.6704798 8.5889998 8.0253 0.0091102 -0.009094 0.014759
43 2 11.2490997 0.284307 1.05707 -0.0118664 0.0091664 0.003857
44 2 8.8611898 5.3467598 8.2416897 -0.014356 0.0073204 0.0270731
45 2 2.3218 1.98708 2.8796 -0.0430908 -0.0114857 0.0060589
46 2 0.924852 5.7146602 1.41061 0.0109197 0.0112492 0.0029323
47 2 10.9861002 4.5114198 13.3922997 -0.0411794 -0.0611797 0.124768
48 2 5.3029299 2.7456501 2.61149 0.0940437 -0.0166806 0.0688649
49 2 4.6623903 6.36904 0.263066 -0.0094589 0.0416265 -0.0555829
50 2 12.4313002 4.1121602 4.6001201 0.120445 0.0353452 -0.0441592
51 2 9.3243199 11.2103005 13.6276999 -0.017866 -0.0153098 0.019004
52 2 5.9784198 7.2498398 2.8252201 0.0731884 -0.0384372 0.07731
53 2 4.84681 1.8113801 6.0131001 -0.0100437 0.0066958 -0.0070759
54 2 3.6860001 4.95047 6.61901 0.0380859 -0.0128234 0.140605
55 2 6.9647002 13.7303 8.6146097 0.0038783 -0.0182457 -0.023673
56 2 8.5001297 4.62462 3.4052601 0.0078038 0.002783 0.0142961
57 2 12.2060003 8.8609896 0.556852 0.043295 0.018978 -0.022043
58 2 6.2116199 9.2791796 8.1131201 0.0234977 -0.0115003 -0.0911659
59 2 1.9133 10.9414998 3.5953 -0.0086215 6.3694797e-04 0.0512425
60 2 5.44875 10.0934 4.4490299 -0.078722 0.0446194 -0.0147831
61 2 8.93812 13.2084999 10.962 0.0140139 -0.0962103 -0.0279613
62 2 9.2174902 7.3867202 12.8032999 -0.0260275 -0.0025618 -0.0189262
63 2 7.91424 8.6698904 5.28612 0.0670415 -0.0590199 0.016848
64 2 11.4259005 10.8795996 3.9475502 -0.0080969 -0.0082763 4.66046e-04
