ITEM: TIMESTEP
14000
ITEM: NUMBER OF ATOMS
64
ITEM: BOX BOUNDS pp pp pp
0.2139297 13.8020706
0.2139297 13.8020706
0.2139297 13.8020706
ITEM: ATOMS id type x y z fx fy fz
1 1 8.0213804 7.2676501 9.5616904 0.0054824 -0.0107136 -0.0308908
2 1 5.1452498 11.9253998 4.3591199 0.0222826 0.0288402 0.0209519
3 1 12.0331001 13.1384001 1.7912001 -0.0131345 -0.0438864 -0.0301556
4 1 5.7586999 8.1557303 6.0000901 0.006548 0.0115709 0.0077913
5 1 0.309018 4.7098599 1.00993 -0.0757106 0.0074396 0.0129946
6 1 6.0472999 3.61481 8.8073502 0.0374359 -0.057111 -0.0016259
7 1 4.2799201 8.4280396 9.7876396 0.0434401 -0.110063 -0.0440654
8 1 11.2283001 9.1712999 2.5565901 0.111381 -0.0437882 -0.0599069
9 1 0.828794 3.60954 10.7788 -0.0059617 0.0165089 0.0099678
10 1 12.7978001 2.1250601 4.1912398 -0.0075211 0.0448935 0.034138
11 1 6.6501599 8.93999 2.07287 0.0349147 -0.0167353 0.0909964
12 1 2.8473102 9.1045704 4.0931301 -0.047012 -0.0420131 -0.0358675
13 1 12.4494 11.6610003 5.6587801 6.7338701e-04 -0.0353153 0.0107788
14 1 4.9791002 12.8577996 9.0746098 -0.0016344 0.0232144 -0.0090457
15 1 11.0253 0.306093 8.2399197 0.0162837 -0.0084541 0.0104944
16 1 2.7191 2.18397 2.55951 0.0508769 -0.039427 0.106534
17 1 2.5297501 2.4288399 7.6120801 -0.0092942 -0.0044257 -0.0197297
18 1 0.351008 12.0277996 9.7183705 0.0134083 -0.0192822 -0.0014191
19 1 12.0757999 8.5156298 10.8690004 0.0221515 0.0064418 7.0903897e-04
20 1 1.26959 6.0907302 6.89919 0.012224 -0.0202033 0.0181356
21 1 9.8246603 4.5088701 7.09304 0.102804 -0.0797973 0.0423224
22 1 3.6197601 12.7290001 13.4827996 -2.3887501e-04 -0.0127344 -0.0114794
23 1 7.3691402 1.59839 4.5258899 0.0191226 -0.0304523 0.0216808
24 1 8.0799999 0.626662 11.2093 0.0602833 -0.0192747 -0.0661268
25 1 10.6503001 4.4421001 11.2222004 0.0022589 0.0098367 -0.0027292
26 1 7.5542302 4.9744202 3.2453499 -0.0128848 0.0184478 -0.0146935
27 1 3.78246 6.0947199 1.5494401 -2.57969e-04 0.0060702 0.0098975
28 1 8.0448399 12.2517004 0.76628 0.0303289 -0.0025874 0.0788685
29 1 6.5942502 2.02425 0.541545 -0.0241731 0.0572116 0.0626095
30 1 9.0324497 9.0371599 12.7861996 -0.078768 -0.0522858 -0.014141
31 1 9.3316202 7.5542202 5.1526399 0.0209172 0.0329097 0.0242021
32 1 1.19876 9.5307398 13.1884003 0.0277752 -0.0436371 0.0104368
33 2 9.6195498 2.5320001 2.70083 0.0121632 0.0042613 -0.0177528
34 2 2.267 12.8725004 6.6584201 -0.0028884 -0.0071421 0.0078626
35 2 7.2500701 5.5611701 6.5090099 0.0615696 0.040002 -0.0292448
36 2 2.15867 2.77804 13.4380999 0.0250952 -0.0241697 -0.117557
37 2 5.14118 1.1180101 11.5854998 -0.0304925 0.0054529 -0.0121227
38 2 12.9614 7.80367 5.2620402 -0.0248222 0.021395 -0.0261795
39 2 0.62841 10.9813004 3.3112199 -0.0206613 0.0067662 -0.0387873
40 2 5.0929799 9.2808104 13.2509003 -0.060191 3.2270498e-04 -0.056849
41 2 11.9723998 9.5424805 8.0825796 0.0073115 0.0583376 -0.0413437
42 2 12.0482998 1.22339 12.3367005 -0.0146265 0.0263919 -0.0084112
43 2 1.96387 9.0995197 7.0310898 0.0079927 0.0152421 0.025428
44 2 9.6155501 11.4765997 10.0847998 0.0494616 0.0050811 0.0244948
45 2 3.21012 10.8725996 10.6150999 -0.0689945 0.117358 0.0643815
46 2 8.2628403 1.26665 8.1855002 -0.0609203 0.0255123 -0.0206305
47 2 8.5879202 5.3194099 13.7585001 0.0056355 0.0012709 0.0013385
48 2 9.3477898 11.4533997 7.0282402 0.0867004 0.0208625 -0.0359298
49 2 11.9315996 7.0203099 13.4907999 -0.0438379 -0.022455 -0.0130498
50 2 5.05372 1.197 6.3622399 -0.0047676 -0.0522567 0.0382834
51 2 11.5128002 5.2926698 3.25805 0.0010596 0.0070055 0.0021015
52 2 0.577081 7.5169602 1.9016 0.0457424 0.0516509 0.0622923
53 2 4.64819 5.98388 7.8027501 -0.12984 0.0674975 0.0651476
54 2 1.35417 4.4883399 4.0553999 -0.0035759 0.0196808 0.0054061
55 2 7.0654101 11.2854996 11.7531004 -0.0585326 -0.0020147 -0.032453
56 2 12.6355 2.93629 8.3567495 -0.0032928 0.0159962 -0.0135362
57 2 10.4159002 0.255424 5.02352 -0.0145468 0.0148193 -0.0048448
58 2 4.9074402 4.11058 5.3694301 -0.0501682 -0.0268357 -0.072215
59 2 6.49333 10.8240996 7.4012599 -0.0800911 -0.0254004 8.86656e-04
60 2 9.1729403 10.5925999 3.9501902 -0.0694572 0.0372402 0.0176851
61 2 11.8929006 6.4967599 8.69135 -0.0042769 -0.0717518 -0.020969
62 2 0.318103 12.3163004 12.8859998 0.0303314 0.0441277 -0.0011353
63 2 11.5425997 10.3002005 13.3385 0.0608641 0.0506751 0.0158539
64 2 1.51366 7.1472302 10.8810998 -0.0119451 0.0038782 2.1735101e-04
