ITEM: TIMESTEP
20000
ITEM: NUMBER OF ATOMS
64
ITEM: BOX BOUNDS pp pp pp
0.2548052 13.7611952
0.2548052 13.7611952
0.2548052 13.7611952
ITEM: ATOMS id type x y z fx fy fz
1 1 7.7638998 5.5558701 7.8172498 0.0343882 0.0028775 -0.0039752
2 1 3.65836 10.7209997 4.7220302 -0.0111736 -0.0037692 0.026054
3 1 1.12895 12.9723998 2.8777102 -0.005701 0.0268722 -0.0179964
4 1 5.5381799 8.8065005 7.7023201 0.0250191 0.0314091 -0.0353143
5 1 11.5295 6.8310099 0.902921 0.0082906 -0.110321 0.0332942
6 1 3.6345601 4.3770099 8.7764101 -0.0070907 -0.0912281 0.0214001
7 1 5.8555198 9.9263802 11.3549996 0.0345582 -0.118532 0.0450246
8 1 12.0686998 7.8298803 4.84131 -0.0906487 0.0033062 -0.0514094
9 1 2.75612 5.5027299 11.8766004 -0.0369148 0.0418127 0.111933
10 1 13.7554999 2.92551 4.0598602 -0.0304596 -0.168166 0.0451033
11 1 6.0611501 7.4583702 4.2793799 0.0208109 -0.0331113 0.0201722
12 1 1.6770801 7.2961898 1.99177 0.0508828 0.0251573 -0.0680989
13 1 11.3948002 11.3122997 2.99763 0.0566563 -0.0293275 0.0228464
14 1 1.89371 0.569504 9.3989 0.0465152 -0.0196049 0.0206735
15 1 12.5141001 12.7575999 7.4956398 -0.0492253 -0.0034603 0.0065157
16 1 6.1348901 10.3329001 2.03668 -0.0283843 0.0446344 -0.0510603
17 1 4.11974 0.818793 4.4359899 0.0287326 0.0577284 0.0286871
18 1 1.77849 9.5357304 9.5836497 0.0053192 -0.004804 0.0011302
19 1 10.9910002 8.9658298 10.4983998 0.0876364 -0.11139 0.111423
20 1 0.798265 6.1633501 7.1592698 0.01198 0.0025753 0.0075191
21 1 9.7736101 5.29284 11.1336002 0.0459207 -0.0730025 0.0254351
22 1 4.9545898 13.2284002 12.5579996 -0.0161859 0.019922 0.0037209
23 1 8.67412 1.19041 4.6650901 0.0953239 -0.0729385 -0.0490465
24 1 8.1265698 10.9158002 5.1360798 0.0087937 -0.0158282 0.0221905
25 1 7.5584102 7.5243502 13.7743998 0.0305855 0.0050054 -0.0462936
26 1 6.7547002 4.3337698 1.66464 0.0342589 -0.0865699 0.026993
27 1 3.1714799 4.69238 4.4770198 0.115485 0.0996748 0.144959
28 1 9.8058701 1.24958 13.2441998 -0.0156756 -0.0180805 0.0026273
29 1 6.9207602 2.4468801 10.2705002 0.0363013 -0.0840372 -0.0796261
30 1 7.3055601 12.4726 9.1872702 0.0907732 0.0090105 -0.0439861
31 1 12.4195996 3.23804 9.0244598 0.0275261 -0.0106721 0.0041592
32 1 13.4987002 11.4629002 12.6294003 0.0116805 0.042399 -0.0048177
33 2 12.6660996 0.592093 10.8441 -0.0300127 -0.0201012 -0.0094972
34 2 1.71121 13.0037003 6.1924801 0.0260066 -0.037411 -0.0315736
35 2 9.1951704 7.9117098 5.9365102 -0.0136591 0.0967731 0.0835534
36 2 2.4421201 3.7496901 1.97012 -0.0478247 -0.054228 -0.147277
37 2 1.5315501 2.37236 11.9745998 0.0477296 0.0172299 -0.0102893
38 2 13.3085003 9.8754702 6.3484001 0.0262544 0.0997321 0.0842202
39 2 4.5546599 6.22369 1.9398 -0.03152 0.0420839 -0.0108077
40 2 8.8162804 5.6637602 4.1570301 -0.0260044 -0.0936673 -0.0734561
41 2 11.2613001 5.8720498 7.97711 -0.0352084 0.0159095 -0.0168006
42 2 12.2301998 3.07919 13.1799002 -0.0124162 0.034115 0.0027499
43 2 1.98866 8.2812405 4.85526 0.127836 -0.262077 0.208156
44 2 8.8115502 10.1842003 12.2027998 -0.0661479 0.0304776 -0.0031108
45 2 3.5955401 10.2034998 13.4173002 0.044932 0.039103 0.0267782
46 2 6.4766302 2.8160999 5.3214102 -0.105471 0.0866876 0.0259309
47 2 6.3797403 4.5605102 11.9988004 -0.0265736 0.130162 0.0922435
48 2 8.24615 7.5864802 10.3118 -0.0716473 0.0531281 -0.0284897
49 2 11.3968001 9.5293703 13.5904999 0.0287885 0.0842042 0.0161937
50 2 4.8512202 1.51132 8.1410303 0.0181654 -0.0195381 0.0054114
51 2 11.1399002 2.76561 5.64468 0.0019227 0.009531 0.0272779
52 2 0.87518 10.0026999 3.0662401 -0.140881 0.179428 -0.191367
53 2 4.2725001 7.5311699 9.9835796 -0.0296444 -0.0361506 0.0461079
54 2 13.4604998 5.6562801 3.6120401 -0.011337 0.0379648 -0.012652
55 2 9.8338099 1.5306601 9.0297699 -0.0163137 -0.0081677 0.0010552
56 2 2.06739 2.4319401 7.0595498 -0.0407275 0.06675 -0.054518
57 2 11.7179003 1.3453601 2.54299 -0.0268425 -0.0380413 -0.0142908
58 2 4.9854398 5.6669798 6.6964503 0.0489138 0.0832252 -0.0961675
59 2 4.5216799 11.8500004 9.6998501 -0.11921 0.0360066 -0.0392983
60 2 6.8587298 1.17496 1.0616601 0.008132 0.0051708 0.0077012
61 2 13.3570004 6.3453398 10.3336001 0.0134513 0.0022456 0.0110562
62 2 10.2223997 10.5931998 8.3923798 -0.0535983 0.101484 -0.130607
63 2 8.7993403 11.8241997 1.87541 -0.0584244 0.0275179 -0.0267309
64 2 1.12657 8.6676703 12.6763001 -0.044647 -0.0670896 -0.0217383
