ITEM: TIMESTEP
16000
ITEM: NUMBER OF ATOMS
64
ITEM: BOX BOUNDS pp pp pp
0.3649327 13.6510678
0.3649327 13.6510678
0.3649327 13.6510678
ITEM: ATOMS id type x y z fx fy fz
1 1 7.8923602 8.1290903 10.2484999 0.0234484 -0.0540174 -0.050627
2 1 5.1955299 11.4593001 6.2133899 0.0053885 0.0509533 0.0010131
3 1 2.4651699 0.698684 2.40872 -0.0576984 0.0185476 -0.0176548
4 1 5.0174699 7.9703302 7.7375102 0.0835848 0.0225159 -0.0957208
5 1 0.522762 5.6075802 1.20947 -0.0365807 -0.0088225 0.0258916
6 1 5.22685 4.02598 8.9117498 0.0760019 0.0125392 -0.0861635
7 1 4.1861901 8.9490004 11.1351996 0.0048353 -0.0246661 0.072997
8 1 10.3877001 8.5904103 2.99629 0.0058032 0.0050602 -0.0465479
9 1 2.81192 4.0128498 11.3849001 -0.0688871 0.020259 0.0833331
10 1 12.0662003 2.0310099 4.6862302 0.129338 -0.0186905 0.0158841
11 1 6.4498601 8.6336298 4.2892699 0.0316602 -0.0167195 -0.0281918
12 1 2.6515901 9.3358297 5.0035701 -0.0521962 0.0436472 -0.0498243
13 1 12.4770003 11.3486004 4.0824499 -0.0381661 0.0353348 0.100681
14 1 2.56091 13.1100998 8.59513 -0.009315 -0.0176645 0.0107502
15 1 11.4469996 13.1084004 7.3604398 0.0011287 -0.0371066 0.0512084
16 1 5.9713202 0.378285 2.9819702 -0.104103 -0.0743847 0.0805041
17 1 2.9031702 2.43678 5.5720701 -0.0082456 0.0057324 0.0106141
18 1 13.0443001 9.3164702 8.9818296 -0.0157039 0.11354 0.0787275
19 1 11.4717999 6.9712 11.3358002 -0.0498336 0.0513838 0.0241262
20 1 1.01543 6.6691299 6.69132 0.0153204 -0.0554083 0.03896
21 1 9.2203303 4.3189998 9.0195599 0.0275197 0.0602932 0.0439547
22 1 5.1550498 13.2004004 12.9533998 -0.0331045 -0.102898 -0.0274572
23 1 8.8048697 2.05198 3.34076 0.111516 0.0844861 0.0056264
24 1 7.5472598 13.0478001 8.3999004 0.0397811 0.0015946 0.0497676
25 1 10.9565002 3.1979499 13.5057001 -0.0129224 0.0109019 0.0266568
26 1 6.8904902 4.98413 1.83672 0.102161 0.0623673 0.0778671
27 1 3.61482 6.1448999 3.5683201 -0.0125708 -0.042273 -0.0080557
28 1 10.1646004 12.8857002 12.8479996 -0.0564567 -0.0396417 -0.0690229
29 1 7.1940699 2.65731 11.8991004 0.0433016 0.045489 0.0100635
30 1 7.52946 8.6503096 0.573172 -0.005784 0.0105433 0.005115
31 1 10.2838001 6.32973 5.7610102 -0.0101948 0.0346831 0.119218
32 1 13.1363001 11.0648003 0.777989 0.0340594 0.039594 -0.177788
33 2 0.5130191 1.34224 13.4677 -0.006146 0.0091989 -0.0310937
34 2 1.21829 13.2041998 5.1304898 0.0188433 0.0087427 0.0310772
35 2 7.2345901 5.8329201 6.92902 0.001509 0.0020185 0.0076908
36 2 4.89355 3.2925799 0.770025 -0.0876159 -0.0849079 -0.0492927
37 2 4.60109 1.63799 10.7001 -0.02759 0.0017623 -0.0640618
38 2 12.6138001 8.9790202 5.9596 -0.023131 0.0107774 -0.022215
39 2 3.18676 11.2250004 1.53413 -0.0023412 -0.0093311 -0.0096951
40 2 4.3462701 8.2501497 1.4011901 0.0304267 -0.0077026 0.004197
41 2 10.7135 7.8357501 8.5156498 -0.140514 -0.0484249 -0.0297536
42 2 12.9051 4.5295501 11.6219998 0.0716287 -0.072658 0.0012153
43 2 2.40658 9.44874 8.09021 0.11077 0.0219188 -0.0407868
44 2 9.9485502 11.3069 9.3927097 -0.0109812 -0.0318039 -0.0190147
45 2 1.67933 10.6329003 11.1592999 5.6086498e-04 0.0018791 0.0141572
46 2 8.3577004 2.4424601 6.98382 -0.0158467 -0.0407164 -0.0569496
47 2 6.2230301 6.1403499 12.5002003 -0.0158142 0.017983 -0.0622594
48 2 8.6804505 10.9196998 6.1001601 -0.008153 0.0026151 8.4231606e-04
49 2 9.9485398 6.2263999 0.771484 -0.0073049 0.0046375 0.0015429
50 2 5.0894699 1.13782 7.3396101 -0.0109625 0.0159118 -0.0059857
51 2 10.8816996 4.4497099 3.71191 -0.0603765 4.7129503e-04 -0.12432
52 2 0.596973 8.95358 2.61357 0.014857 -0.0680545 0.0424642
53 2 3.3126199 6.5183201 9.4454298 -0.0801119 -0.0709558 0.0698875
54 2 0.5724 4.9095302 4.23066 0.0508215 -0.0119828 0.0124554
55 2 7.6700001 10.7676001 11.4892998 -0.0393847 0.0621072 0.0459971
56 2 0.473551 2.1516299 7.5548902 -0.0026197 -0.0079872 -0.0038262
57 2 11.3336001 0.628066 2.03053 0.0122392 -0.0051827 0.0617691
58 2 3.63602 5.1442299 6.5275998 0.0245249 0.0346611 -0.0019809
59 2 5.2140699 10.9895 9.2880001 0.0095244 0.0358553 -0.0345642
60 2 7.89704 11.3964996 2.1829 0.0138706 -0.0147581 -0.0070269
61 2 12.2704001 5.1047101 8.32374 -0.011638 -0.0162877 0.0037178
62 2 12.5557003 12.5326004 10.4797001 0.0122294 0.0241688 0.0072355
63 2 10.5363999 9.7368899 12.5003004 0.009979 -0.0082435 0.0138336
64 2 2.2399399 7.0137401 12.5536003 0.005662 0.007116 -0.031162
