ITEM: TIMESTEP
30000
ITEM: NUMBER OF ATOMS
64
ITEM: BOX BOUNDS pp pp pp
0.2936197 13.7223807
0.2936197 13.7223807
0.2936197 13.7223807
ITEM: ATOMS id type x y z fx fy fz
1 1 7.7045899 4.48347 9.0143003 -0.0120048 0.0079448 -0.0250208
2 1 1.99981 13.0724001 5.16295 -0.037008 0.0065911 -0.0296648
3 1 11.1976004 4.9541898 13.5780001 0.017059 -0.0321831 -0.0102762
4 1 8.1303997 0.897382 6.8698902 -0.0247217 0.021481 -0.0156787
5 1 11.2306996 8.3404102 1.75421 0.0162489 -0.0053503 0.0202886
6 1 1.6780501 2.63026 9.3423596 0.0306401 0.0071509 0.0169197
7 1 3.16219 6.1563201 11.4000998 -0.0663527 0.0281028 0.0864624
8 1 12.4737997 10.0621004 7.69802 0.121267 -0.0570817 0.0530011
9 1 5.15872 2.9488202 2.94549 0.0414917 -0.0936117 0.0248738
10 1 11.9553004 4.6580701 4.84162 -0.0134233 0.015146 0.028333
11 1 9.16819 8.7666502 4.7521701 -0.0202215 0.0121835 0.0247914
12 1 2.11463 6.0662298 3.5688901 -0.0112072 -0.008765 -0.0249216
13 1 2.38642 9.9634504 2.98223 -0.0394203 0.0378468 0.0407033
14 1 1.88843 12.4286003 10.6913996 0.0630017 -0.0432443 0.155505
15 1 11.9779998 0.810192 6.6396799 0.009573 0.0116452 8.8191204e-04
16 1 5.32198 13.5486002 11.0328999 -0.0493938 -0.012918 0.0155798
17 1 5.0948401 3.60497 6.6020003 -0.0239033 -0.031686 -0.0297499
18 1 9.5107899 8.4510603 9.0681105 -0.0054612 0.0024404 -0.0536082
19 1 12.1794996 8.2573204 11.6034003 0.0169491 -0.0768719 0.0034443
20 1 3.86142 7.2585902 6.6662302 -0.174441 -0.0574985 -0.0855727
21 1 5.84369 7.8216801 9.3295803 0.0363766 -0.0193997 0.0796812
22 1 6.1523399 11.8210001 0.8281811 0.0995932 -0.0090961 0.0516998
23 1 10.2995005 12.1711998 2.43465 -0.013373 -0.090406 0.082443
24 1 4.5397501 8.1039495 0.975856 0.0333732 0.0340828 -0.0725691
25 1 7.7595802 9.25768 11.9395 -0.0133268 0.0287803 0.0304841
26 1 9.4653597 2.1484699 2.0363801 -0.0558879 0.162756 0.0223852
27 1 8.0900698 5.0609798 4.5985298 -0.0119344 -0.0091069 0.0231704
28 1 8.8480998 12.8816004 12.0023003 0.055437 0.0248236 -0.0059847
29 1 6.7400298 4.8509002 12.7676001 0.0062274 -0.0010937 0.0055118
30 1 5.48485 10.4454003 6.5774002 0.0438021 0.0510537 0.0385687
31 1 11.8168001 1.68847 10.7314997 -0.0249659 -0.0116589 0.0081066
32 1 13.4296999 11.1083002 13.4389 -0.0101108 0.0211523 0.0502652
33 2 11.8341999 10.9348002 10.4250002 -0.0034223 0.0543687 0.0417839
34 2 0.919743 12.9379998 8.1827202 -0.0908512 0.0642168 -0.169739
35 2 6.7560501 7.3194399 6.45395 0.0781876 -2.7077499e-04 -0.0165493
36 2 13.3830004 3.3791399 2.53739 -0.0278287 0.0427567 0.0054009
37 2 1.5401 1.3139401 1.05053 -0.0266161 -0.062357 -0.0384954
38 2 2.5239699 10.5656004 6.93398 -0.0214315 -0.0364417 -0.0066703
39 2 4.8304 10.1378002 11.0583 0.0011 0.0177855 0.0074621
40 2 13.6159001 8.6768904 5.0244398 0.0033528 -0.0057445 -0.008476
41 2 10.8093004 6.5780401 7.2161698 0.0205057 0.0042216 -0.0434251
42 2 10.1410999 4.3836498 10.6752997 0.0314532 0.0016384 0.0279262
43 2 4.1545901 13.6325999 2.1903901 0.027397 0.0100405 0.0615599
44 2 10.0602999 13.0756998 8.8258305 0.0206955 -0.0073558 0.0159371
45 2 9.0775099 5.99114 1.89644 -0.0297406 0.0134878 0.0093663
46 2 3.0729201 4.1244798 1.2482801 -0.0609432 0.0510929 -0.0120373
47 2 6.9679298 1.73109 13.3601999 -0.0041161 -0.0131747 0.0126101
48 2 4.2156401 0.451453 6.8923502 0.0479188 0.0157448 0.0390377
49 2 10.3020001 10.5797997 13.3657999 0.0184204 -0.0141454 -0.050845
50 2 3.3706999 2.4408 12.1434002 0.0217655 -0.0149449 -0.065961
51 2 7.5979901 13.6413002 3.1113 -0.0547811 -0.0416851 0.0236906
52 2 5.5893402 5.65907 2.1146801 0.0721226 0.0455717 0.0316707
53 2 0.838385 5.6117001 8.6513596 0.0083247 0.0047843 -0.0077051
54 2 1.68871 2.87425 6.3404298 1.06565e-04 -0.0037012 -0.0305791
55 2 11.3497 0.670529 0.513075 0.088557 -0.0217341 -0.113129
56 2 10.3656998 3.4920299 7.4000802 -0.0151987 -0.0430549 -0.0018441
57 2 3.39431 11.4695997 13.6334 -0.123586 -0.0503001 -0.0488599
58 2 4.17905 4.6835499 9.19771 0.036994 -0.029775 -0.047414
59 2 6.1250701 10.4338999 3.7204299 0.0018665 -0.001968 -0.0518858
60 2 7.91286 9.0692396 1.35826 -0.0080355 -0.0118942 0.0993228
61 2 13.5579005 4.8132401 11.7727003 0.0348667 -0.0074931 -0.019342
62 2 7.66708 1.48798 10.0195999 0.046639 0.0528532 -0.0318381
63 2 11.1768999 11.3344002 5.5918103 -0.0778908 0.0675699 -0.12275
64 2 0.987398 7.8646498 0.81944 2.85251e-04 0.0066982 0.0017231
