ITEM: TIMESTEP
32000
ITEM: NUMBER OF ATOMS
64
ITEM: BOX BOUNDS pp pp pp
0.2958597 13.7201405
0.2958597 13.7201405
0.2958597 13.7201405
ITEM: ATOMS id type x y z fx fy fz
1 1 7.5191303 4.95011 9.7757197 0.0566543 -0.0171427 0.0426988
2 1 2.2618401 0.359033 5.4187002 -0.05845 0.0728759 -0.113729
3 1 11.4668999 5.2436099 13.6111002 -0.0633545 -0.0756156 -0.033319
4 1 7.5430999 1.07724 4.5764199 0.0759166 -0.030625 -0.0335945
5 1 9.6919604 7.3647399 2.98956 0.0352448 0.0602585 0.0455768
6 1 0.935823 3.7184701 7.38554 0.0122079 -0.009007 0.0115101
7 1 3.2319501 5.0879798 10.6478997 -0.08119 0.0109376 0.051271
8 1 12.8373003 10.9847002 7.0552502 0.0679333 -0.0777553 -0.0331617
9 1 2.0964 1.95918 1.87275 0.0018504 -0.0652043 -0.0749893
10 1 12.8908006 4.9847298 3.97804 -0.0365942 0.0149584 -0.0223983
11 1 6.7232399 8.3037996 5.1628599 0.0184445 0.0548533 0.106026
12 1 2.9886 5.5076499 2.3232401 0.0061866 0.0248014 0.013671
13 1 3.8052199 9.5163803 3.2977901 -0.0182598 0.0229258 -0.0080876
14 1 3.2833099 11.8127003 9.4933901 0.0014642 -0.0100827 -0.0321682
15 1 11.1754999 0.651581 6.8390002 -0.0272572 0.0149904 0.0331236
16 1 6.2663398 1.59032 10.4806004 -0.008899 -0.0218789 -0.0101715
17 1 4.9144702 2.2858601 6.5098901 0.0080433 0.0266733 0.0244843
18 1 9.8274403 8.0865002 7.2838102 0.0104847 -0.0164034 0.0268367
19 1 12.896 8.0523996 11.3487997 0.0067916 -0.0140074 -0.0026743
20 1 3.1210301 8.2632704 6.9217402 0.0081574 -0.0331992 0.0125648
21 1 5.7850499 8.3086996 9.8132897 -0.007027 0.0549402 0.005118
22 1 5.7276702 12.7537003 13.415 0.0178078 -0.0158596 0.0190662
23 1 8.6938896 11.2559996 2.03654 0.0064835 0.026243 0.0567561
24 1 4.9249802 7.0800099 13.1459999 -0.0046137 0.0683255 0.0103367
25 1 8.5742703 8.5536099 13.1542997 -0.008204 -0.0353808 -0.0611158
26 1 9.8113699 1.6977 1.35175 0.0244567 -0.0319527 0.0471311
27 1 10.0098 4.0876002 6.4374099 -0.0169383 0.0306008 -0.0046427
28 1 9.0706701 12.0368996 11.3864002 0.0130013 0.0114547 0.0330108
29 1 7.36407 5.02385 1.31459 0.0047737 -0.0369716 -0.0110525
30 1 7.98903 11.7077999 7.61477 0.0192429 0.066313 -0.0325186
31 1 11.3416004 2.0267 11.0243998 0.0056053 -0.0130617 -0.0349943
32 1 0.698816 11.5791998 13.2198 -0.13383 -0.0464866 0.0799506
33 2 13.5598002 10.9234 10.2621002 0.0125096 0.0035401 -0.0187869
34 2 1.15438 13.5437002 8.12572 -0.0505954 0.0097312 0.0349352
35 2 6.6715002 6.6417799 7.51055 0.0489258 0.0204882 -0.0155165
36 2 11.8050003 1.7083301 4.0865502 0.0049003 0.0232457 -0.0267624
37 2 12.3340998 11.5537997 3.11583 -0.0100464 0.0397874 -0.0234814
38 2 5.5714503 10.2617998 7.3931799 -0.108356 -0.0661865 0.0103633
39 2 6.15695 11.6183996 10.6056996 -0.004403 -0.008951 -0.0248856
40 2 2.3810899 11.0966997 6.23419 0.019888 -0.103018 0.0243043
41 2 12.8444996 8.8487502 4.4926701 0.0050183 -0.0328991 0.0496346
42 2 10.6422005 5.5000801 9.4955101 -0.0039944 0.0014059 -0.0066935
43 2 3.76752 12.6276999 2.3099799 -0.022813 0.0022969 0.0199879
44 2 10.5936003 11.5058003 8.84406 0.0279344 0.0027345 0.0338257
45 2 9.7779904 4.4106302 3.0120499 0.0319646 -0.0485336 0.0169598
46 2 1.03242 5.50104 13.2166004 0.041158 0.0051798 -7.6999803e-05
47 2 5.6560302 2.44961 13.6076002 0.0012021 0.008472 -0.0060613
48 2 3.2626801 2.17956 9.6170197 -0.0268384 -0.053996 0.0092253
49 2 11.3495999 10.2454004 13.0461998 -0.0260054 -0.0020761 0.0031958
50 2 2.9203402 12.9891996 12.3162003 0.095021 0.219354 -0.0370517
51 2 5.7961898 3.4163799 3.4536 -0.0158708 -0.0062531 0.0074859
52 2 4.5559402 6.03968 5.0211701 -0.0134664 0.0077795 0.0020886
53 2 0.313202 7.1933198 8.1760798 -0.0017889 -0.0012321 0.0041833
54 2 2.0504 3.4847501 4.3288498 0.019869 -0.0061923 0.0974399
55 2 13.0172997 1.21559 13.481 -0.0016631 -0.003329 0.0133066
56 2 8.2377005 1.87575 7.9253002 -0.0063201 -0.0053987 -0.0057801
57 2 3.0494201 10.1204004 12.0803003 0.0420159 -0.154182 -0.015672
58 2 4.8754002 4.4309101 8.4134703 0.021763 0.0278072 -0.0314754
59 2 6.13481 11.6508999 4.6023302 0.0113003 -0.008827 -0.0188077
60 2 6.6019602 8.4302397 2.3910301 0.0113586 -0.0013719 -0.170808
61 2 13.5403996 4.1388202 10.4714003 0.01007 0.0023141 -0.0144522
62 2 9.1114101 3.36606 12.4883003 -0.0509867 0.0570051 -0.0339096
63 2 9.8151303 10.3288002 5.2013402 -0.0143547 0.0127286 -0.0097215
64 2 12.6204005 7.4425202 1.6601401 0.0164704 0.0480591 0.0224913
