ITEM: TIMESTEP
24000
ITEM: NUMBER OF ATOMS
64
ITEM: BOX BOUNDS pp pp pp
0.2417521 13.7742481
0.2417521 13.7742481
0.2417521 13.7742481
ITEM: ATOMS id type x y z fx fy fz
1 1 9.5435105 3.26702 9.0223303 0.0269467 0.0301145 0.0057107
2 1 2.1354699 12.9249002 3.81368 0.0049102 0.0139025 0.0598826
3 1 12.8653002 1.8030601 3.28385 0.013168 -0.0129748 -0.0758883
4 1 5.3147102 11.8233996 7.6351099 0.00491 0.0015754 0.0246314
5 1 11.3361998 6.3085799 0.397331 -0.0078753 -0.049717 0.0156124
6 1 4.0258098 4.7196102 8.1592102 -0.041995 -0.019286 0.0563814
7 1 5.5026598 5.1071501 13.3388996 -0.155463 -0.0321796 -0.0097226
8 1 10.5749998 8.1368504 6.3724098 0.0079202 0.0040764 -0.0012082
9 1 1.99651 4.1207199 1.51831 -0.0196328 -0.0096764 -0.0929236
10 1 12.5358 4.7951103 4.9663902 -0.0275258 0.0572136 0.070086
11 1 7.1687198 6.95963 2.34846 0.0428464 0.0306854 0.0353367
12 1 2.0765801 8.8616896 2.0973599 0.0402056 -0.0375336 -0.0035087
13 1 12.2195997 10.3186998 2.4037299 0.0257787 7.4486799e-04 0.0261304
14 1 2.86246 0.541337 9.7533102 0.0352458 0.121702 0.0503399
15 1 11.2237997 0.423202 6.8269201 -0.0052873 -5.7431398e-04 0.046235
16 1 4.6626401 11.3359003 0.401232 0.0122354 -0.0692215 -0.0100713
17 1 5.96133 0.936817 3.82441 -0.0034032 0.040682 0.0494846
18 1 12.6197005 9.24996 9.4472904 0.0096438 -0.0327044 0.0097892
19 1 0.848542 5.5173998 11.6126004 -0.0301963 -0.0107396 -0.0132433
20 1 1.45828 7.4853401 6.4372001 -0.0051039 -0.0312264 -0.0479206
21 1 9.1517601 7.02739 10.6335001 -0.139933 0.0172382 0.109141
22 1 4.4587202 1.29623 0.239862 -0.059174 0.0789948 0.0068581
23 1 9.5106898 12.7114001 3.4145401 -0.069893 0.0211706 -0.0246741
24 1 5.4021702 10.9243002 4.0506701 0.0102355 -0.0678802 -0.0115987
25 1 10.1639996 9.6405297 13.0663996 0.0224965 -0.023757 0.0287581
26 1 8.85359 3.22313 3.02896 0.0955945 -0.0847294 -0.0272705
27 1 3.2694299 5.0012102 4.7105298 0.0443332 0.003549 -0.0258631
28 1 8.8749 12.1423998 11.1245003 -0.0272988 0.101161 -0.0627726
29 1 6.74049 2.31881 10.9856006 -0.0268634 -0.0085293 0.0097464
30 1 4.2963801 8.40238 10.2010002 -0.0032037 -0.005986 0.0184554
31 1 12.6336003 1.5087201 10.7496004 0.0100063 0.0180531 -0.0033539
32 1 1.26875 11.4603005 11.8067999 -0.0345902 -0.0149584 -0.0029767
33 2 11.8491002 12.1601 9.5794297 -0.0032111 0.0308395 -0.010662
34 2 1.86314 2.2706001 6.4784599 0.0248455 -0.0297549 -0.0601902
35 2 8.1742601 6.3460899 5.6296301 -0.0309033 -0.00881 0.0113487
36 2 3.28935 2.28461 3.4923001 -0.0075971 -0.0407887 -0.0169902
37 2 1.08058 1.23791 13.7125998 0.0065846 0.0074914 -0.0013372
38 2 0.547621 10.1131001 5.7502799 -0.0344706 0.0736505 -0.0368114
39 2 3.12183 7.06388 12.8993998 0.0033905 0.0166878 0.0158023
40 2 10.1443996 5.8271098 3.2409599 0.0319179 0.0552621 -0.0142084
41 2 11.0503998 6.2013202 8.8169804 0.127251 -0.0312014 -0.149315
42 2 11.3025999 4.43643 11.3407002 0.0061974 -0.0153448 0.0337795
43 2 4.5658999 8.1052799 5.6163302 -0.0117811 -0.0066348 -0.0076074
44 2 9.5883599 9.70187 9.2997503 -1.00381e-04 0.0100818 -0.0099945
45 2 7.2631602 8.7975598 13.2087002 -0.0288329 -0.0180589 -0.0157896
46 2 6.1975598 4.1521702 3.2257099 -0.123465 0.0272489 0.0054086
47 2 8.2703104 5.3685198 13.1148005 0.148298 0.0090647 0.0043541
48 2 6.6331601 8.6152497 8.2460098 0.0124677 0.00955 -0.010362
49 2 11.7173004 12.8858004 12.7128001 0.0018936 -0.03614 0.0262954
50 2 6.0015602 2.5067301 6.7799802 -0.0074673 0.0085349 -0.0080359
51 2 9.7946797 3.0147901 6.0766702 5.4655104e-04 0.0173244 -0.0521429
52 2 1.61522 11.6345997 1.26537 -0.0261162 0.0153893 -0.0419576
53 2 1.5420701 7.3923402 9.2866297 0.0066307 -0.0132889 0.0794468
54 2 0.770742 6.38343 3.1131101 -0.0089994 0.0027357 0.0145651
55 2 9.5063696 1.76599 13.1087999 0.0292801 0.0328665 -0.0383738
56 2 0.977653 3.72244 8.92128 -0.0200793 0.0355603 0.0717467
57 2 12.2849999 12.6990996 4.3461199 0.0633286 -0.0633549 0.0151369
58 2 6.7803302 5.3969302 9.01408 0.0518027 -0.0074432 0.025872
59 2 2.0731201 11.9238998 8.0629902 -0.0249235 -0.0740585 -0.0473262
60 2 7.2374001 0.553123 1.17554 3.0945299e-04 -0.033684 0.0077159
61 2 3.3262501 3.6462701 11.7124996 0.0028578 -0.0215317 -0.0054707
62 2 8.1159897 0.414972 8.3067999 0.0110871 -0.0017855 0.0137512
63 2 8.3484802 9.90092 2.54946 0.0072968 0.005304 0.0041574
64 2 13.0781002 8.7233296 13.3683996 0.042923 0.0150991 -0.0123888
