ITEM: TIMESTEP
40000
ITEM: NUMBER OF ATOMS
64
ITEM: BOX BOUNDS pp pp pp
0.2554219 13.7605782
0.2554219 13.7605782
0.2554219 13.7605782
ITEM: ATOMS id type x y z fx fy fz
1 1 4.8294401 5.8319602 10.4890003 -0.0372455 0.0292986 -0.140066
2 1 11.7972002 2.36672 7.1728201 0.0279112 0.0110205 -0.0155159
3 1 12.8060999 4.6826 10.9053002 -0.0101023 0.0125405 0.0224621
4 1 9.9728004 3.14992 2.5292399 -0.033104 -0.0586783 0.0140964
5 1 0.721762 6.8301001 7.7182398 -0.197874 0.0596101 0.0253075
6 1 10.4197998 6.6409302 7.7901201 0.0132417 -0.0413938 -0.0086841
7 1 3.7858801 3.80264 6.7733302 0.0108732 -0.192619 0.154588
8 1 0.511913 12.4603997 6.9315702 -0.0500964 -0.0786433 0.0235123
9 1 3.5673101 1.29541 12.7936001 -0.0034767 -0.0424634 0.0208534
10 1 12.6754999 5.1943698 1.40013 0.0613543 0.014493 -0.01398
11 1 9.5686198 7.3481798 4.2561402 -0.026613 6.9860202e-04 0.0125517
12 1 6.3237801 7.3134399 2.81111 2.0968499e-04 0.130672 0.0334105
13 1 6.0594001 1.6482901 2.9846302 6.9728098e-04 -0.0084017 0.0087006
14 1 3.81389 12.4271002 8.8685304 0.0045047 -0.0056367 -0.0114912
15 1 10.0317001 11.8217001 7.17132 0.0158624 -0.0618113 -0.0178877
16 1 7.20435 3.15588 10.3780003 0.117765 -0.0525323 -0.163452
17 1 0.6198311 4.4932299 4.7664099 -0.0355372 -0.013751 0.0214622
18 1 12.3971005 11.0239 10.2088003 -0.0044248 -0.0721018 -0.0252394
19 1 0.737638 8.6924601 0.5586331 -0.0059189 -0.0097663 0.0149257
20 1 1.61229 9.87356 4.4719401 -0.146444 -0.133322 0.034629
21 1 9.10431 8.8056698 10.3330002 -0.0369857 -0.0117256 -0.0052216
22 1 3.7403901 11.8919002 2.83904 0.101407 0.0890877 -0.0664925
23 1 9.4705897 12.6584997 3.0429499 -0.0249339 0.0324251 -0.0929149
24 1 3.17345 10.2736998 11.8656998 0.0334516 0.0312601 0.0039942
25 1 9.3061199 6.1795201 0.373758 -0.0438477 0.0184164 -0.0182472
26 1 0.951663 1.11435 3.21889 0.0043621 -0.0445025 0.0484297
27 1 8.1428404 2.83126 6.2226401 -0.0159904 0.0418543 -0.0056855
28 1 7.1615801 9.9419404 0.42612 0.0040711 0.0133996 -0.0140975
29 1 4.1911998 4.83387 1.95145 -0.0909367 -0.0236099 -0.125217
30 1 5.20367 8.6241102 7.1916099 0.0552575 0.0483606 -0.0496229
31 1 11.9617996 1.03854 11.8235998 0.0158986 0.0180714 0.0310857
32 1 11.5883999 9.8723002 2.90418 0.0406879 0.0445281 -0.0295572
33 2 1.8201801 7.6978998 11.2940998 0.0111081 -0.0526744 -0.0074788
34 2 11.2362003 13.5744 9.1436195 0.0109274 0.038207 -0.0102383
35 2 5.5527101 5.5624399 5.31529 0.0620993 0.0365082 -0.0643879
36 2 10.6014996 4.7355199 5.0865002 0.0301325 -0.0486182 0.0357558
37 2 11.7669001 13.6419001 4.7437101 0.0221115 0.0073082 0.0271079
38 2 3.40519 6.4491902 7.4179702 0.10424 0.0695756 0.0733333
39 2 6.5881 0.567189 12.6278 -0.0479022 -0.0978968 -0.0140541
40 2 2.1184399 9.6013203 8.5805397 0.0024131 0.0113217 -0.0040933
41 2 3.7572301 11.0885 5.99438 -0.0056628 -0.0653708 0.0187001
42 2 9.6962004 5.25177 10.8405 -0.0075087 0.0088337 -0.0090392
43 2 11.7227001 13.3182001 1.0816801 -0.0077734 -0.0165171 0.0290031
44 2 5.5815401 9.2735205 10.0474997 0.0038949 -0.001893 0.0455273
45 2 0.397471 2.0787001 0.5745541 0.004376 0.0557259 -0.0816433
46 2 3.17237 4.1683798 12.3678999 -0.0882238 0.0446252 0.0032734
47 2 6.0802999 3.5033 12.8606998 -0.0469929 0.0825559 0.192426
48 2 1.49799 1.51848 6.15273 0.0219643 0.0930432 0.0072262
49 2 12.3568001 7.65237 10.1806002 -0.0341667 0.0224724 -0.0150113
50 2 4.83496 0.272196 6.1788602 0.0380233 0.119752 -0.0085556
51 2 3.3662501 3.2081399 4.1009798 -0.0448462 -0.108529 -0.0838935
52 2 7.8393698 10.1365004 3.7377901 -7.7841797e-04 -0.022947 -0.0065523
53 2 1.13625 3.8980602 8.6724596 0.0178201 -0.0121939 -0.0348576
54 2 2.3547399 6.9091602 4.4042301 0.0349933 0.0017466 -0.014995
55 2 10.2802 10.0277996 12.7518997 0.0250433 0.0171975 0.0420284
56 2 8.2768202 13.3970003 5.5094099 -0.0885453 0.0520871 0.0334817
57 2 3.87811 9.0609303 1.4730001 -0.0059509 0.005689 0.0051589
58 2 7.1014099 6.0145502 8.2287197 0.0054962 5.5236802e-05 0.0095456
59 2 7.1353002 4.5220299 2.4201801 0.0547296 -0.0390248 -0.0030391
60 2 5.0893502 6.6921501 13.158 0.034603 0.0564162 0.111102
61 2 0.448196 11.9752998 12.5114002 0.0348054 0.009432 0.0368462
62 2 9.1853304 1.95576 13.0500002 0.0661965 0.0485114 0.0165185
63 2 11.8375998 9.4593096 6.5173402 0.0211296 -0.0220357 -0.006589
64 2 12.6341 7.28612 3.8925 0.0282208 -0.0381415 0.0107578
