ITEM: TIMESTEP
76000
ITEM: NUMBER OF ATOMS
64
ITEM: BOX BOUNDS pp pp pp
0.3825765 13.6334238
0.3825765 13.6334238
0.3825765 13.6334238
ITEM: ATOMS id type x y z fx fy fz
1 1 3.5911 3.8175199 8.3004599 0.0141378 -0.0128604 -0.0779817
2 1 1.35929 13.2854004 5.6915398 0.0425363 0.0333024 0.101788
3 1 13.4106999 4.76967 10.1525002 -0.0533825 0.0750176 0.0341683
4 1 3.2730801 9.2585096 11.0117998 -0.0301334 0.0238551 -0.0670086
5 1 3.2142799 4.5664802 12.2048998 0.0683076 -0.0895239 0.184687
6 1 9.87323 10.5960999 6.4632302 0.111692 -0.0426346 0.0193385
7 1 7.30936 6.2929702 5.8322602 0.0671461 0.0121062 0.0237321
8 1 8.3246203 1.55958 9.3018103 -0.0925727 -0.072803 -0.111948
9 1 0.61397 6.8055001 0.436675 0.0097873 0.0260526 -0.0789938
10 1 5.0906701 1.01772 13.2792997 0.0017517 -0.0032239 0.0093648
11 1 6.9412498 10.3460999 10.0646 9.6213904e-04 0.0037199 -0.0043931
12 1 12.5876999 5.2919698 3.39009 -0.007569 -0.0357683 0.0607617
13 1 0.546129 1.44602 11.1527996 0.0397486 -0.0160727 0.115676
14 1 8.1377497 4.0471702 11.6912003 -0.0265224 0.0704344 0.107991
15 1 10.4137001 8.3255596 10.0447998 -0.0284466 0.0045696 0.0406404
16 1 5.5187502 12.0408001 4.3478699 0.125872 0.0359455 0.0280242
17 1 5.7934599 6.5358401 9.2541199 0.0891726 0.0218408 0.132057
18 1 9.8720102 7.8705802 2.34114 -0.0224019 0.018937 -0.0580963
19 1 1.62006 8.61026 6.4762101 0.0124625 0.0084157 0.0016347
20 1 13.2325001 10.7917996 3.71082 -0.0472713 -0.0708096 -0.0371826
21 1 5.6231799 9.3664703 6.6339302 -0.0198651 0.0132479 0.0360218
22 1 12.9091998 12.2229996 8.7675305 0.0135713 -0.0768094 0.0551462
23 1 11.7866001 1.07916 3.62478 -0.0041709 0.0282267 -0.020276
24 1 2.7288699 11.2161999 1.21029 0.0216045 -0.0312151 -0.0365171
25 1 12.7244997 10.4462004 12.2243996 0.0071716 0.0107883 -0.0021833
26 1 6.1939201 9.4300804 1.97943 0.0116302 -0.0938744 0.0326447
27 1 3.4676001 5.8481398 3.4716201 0.0235348 0.0606087 0.0274612
28 1 8.41885 11.5093003 13.2679997 0.0451261 -0.0130228 -0.0103133
29 1 8.38449 1.48367 5.03652 0.0034604 0.0808231 -0.0479826
30 1 11.6875 3.59021 7.4003201 -0.0351129 -0.0454156 -0.0747419
31 1 10.4701996 1.3360601 12.9920998 -0.0039107 0.0067047 0.0409693
32 1 4.41815 12.8137999 8.3791103 -0.0120913 0.0129502 0.0086562
33 2 6.9435702 3.6036799 6.9116802 0.0346994 -0.0335408 0.11228
34 2 1.22814 1.98761 8.3260403 -0.0399282 -0.0159936 -0.0467956
35 2 2.72432 6.1138501 9.9779396 0.0139964 0.171558 -0.128458
36 2 1.14771 7.9180398 3.1435599 -0.0017074 0.0113593 0.0385444
37 2 7.71872 12.4489002 6.6061301 -0.106489 -0.0152766 0.0746673
38 2 9.7383404 11.7393999 10.2681999 0.0123535 -0.0086668 -0.0027748
39 2 8.5636196 8.1732597 12.6039 -0.0138374 0.0193492 0.0049452
40 2 11.4183998 13.5102997 6.68255 -0.0474777 0.0453067 -0.0633071
41 2 6.72822 6.3166199 3.0072601 -0.0031331 0.0945319 -0.0140801
42 2 13.3107004 8.98271 9.3467903 0.0565851 0.0513329 0.0297251
43 2 3.1268201 3.0601399 2.7018199 -0.0819025 -0.0406114 -0.105947
44 2 3.98836 7.6229401 13.2824001 0.010531 -0.0466446 0.0701454
45 2 5.7439399 4.2307401 1.1813999 -0.0303772 -0.0636975 -0.0739118
46 2 1.37606 5.6005998 6.2842598 -0.008879 0.0241392 0.0230109
47 2 10.9090996 5.70927 12.8241997 0.0053995 -0.0022453 -0.0024534
48 2 5.3756299 3.0183401 4.5000701 0.0548781 -0.0149905 0.0036301
49 2 8.2339602 8.6238604 7.9640698 -0.0118481 -0.0570757 -0.0067165
50 2 11.7648001 6.8635898 7.8424602 0.0148929 -0.0679656 -0.0231862
51 2 5.5149203 10.7665005 12.7248001 -0.0488083 0.0347669 -0.0322875
52 2 10.3478003 6.98841 5.0921798 -0.008466 -0.0142242 0.0201323
53 2 9.1928396 4.9600102 9.0847502 0.0164472 0.0152949 -0.0398618
54 2 0.988241 2.91514 5.0314899 -0.0430873 -0.0242171 -0.0220626
55 2 3.50773 1.99537 10.6604004 0.029936 -0.0358258 0.0144456
56 2 11.0509996 1.5270801 10.0731001 0.0832575 0.0171765 -0.0361862
57 2 2.2251101 12.1999998 11.0805998 0.0059673 -0.0285411 -9.2489205e-04
58 2 4.4030299 6.5531202 6.8001499 -0.068568 -0.0052253 -0.105865
59 2 3.1825199 13.2275 3.38779 -0.0847454 0.0530592 -0.0635328
60 2 3.9459702 9.3980198 4.0876999 -0.0289454 -0.0120464 -0.0077565
61 2 7.7339401 0.494262 1.96119 -0.009449 0.0168676 0.0173259
62 2 8.9119902 4.0103002 2.7223699 0.0209618 -0.0176986 0.0063795
63 2 0.636938 3.6612301 0.873761 -0.0203589 0.0077147 -0.0257312
64 2 8.84196 10.8885002 3.69096 -0.0281219 -0.0014832 -0.0465379
