ITEM: TIMESTEP
36000
ITEM: NUMBER OF ATOMS
64
ITEM: BOX BOUNDS pp pp pp
0.2658161 13.7501841
0.2658161 13.7501841
0.2658161 13.7501841
ITEM: ATOMS id type x y z fx fy fz
1 1 8.3079701 5.8575702 10.5369997 0.0180553 0.0745632 0.0808167
2 1 13.0269003 1.42382 4.1789599 0.025297 0.0249226 0.0239656
3 1 11.7335997 5.97996 10.1311998 0.1068 0.0052188 0.0124161
4 1 8.70226 1.9249002 2.4848199 -0.0013068 0.0051468 0.0032942
5 1 12.0537996 7.57724 6.7096 -8.2264004e-04 -0.0042772 -0.0106463
6 1 11.2979002 3.1626401 7.6865402 0.0111031 -0.0162513 -0.0171627
7 1 2.6123801 5.6995602 10.5973997 -0.06919 -0.0888794 0.0801306
8 1 0.548741 11.3872996 6.1515002 -0.0362596 -0.0680464 -0.0025295
9 1 2.9568 1.59411 12.0424995 -0.0718315 0.132863 0.107754
10 1 0.304076 5.1057501 3.0994301 0.0126738 9.5195799e-05 0.0304306
11 1 8.6367398 7.8948498 3.7985599 -0.0091108 0.0103438 0.0144432
12 1 4.7848401 8.1501103 3.15853 0.0024558 0.0290917 -0.0087324
13 1 4.4465699 0.997393 3.72543 -0.0028344 -0.0085718 -2.04456e-04
14 1 1.87151 12.0692997 9.8882104 -0.0557372 -0.0541718 -0.0477109
15 1 10.3073998 12.5819998 6.2975001 0.023325 0.0197566 0.0297184
16 1 7.7316599 2.1471801 10.4794998 -0.0421748 0.077794 -0.0105871
17 1 3.5973799 4.35813 6.8993402 0.0290137 -0.0130105 0.0079719
18 1 11.1996002 9.8694802 10.3239002 0.0317142 -0.0022924 0.0258614
19 1 0.75293 8.6777096 13.0621996 -0.016014 0.010194 -1.40836e-04
20 1 2.2179001 7.7048803 6.1852198 0.0346232 0.0259773 0.0060793
21 1 7.7160902 9.7227698 9.5486603 -0.0523235 -0.0016813 -0.0165075
22 1 5.3533301 12.1223002 0.367406 -0.0423886 -0.0573489 3.27841e-04
23 1 7.85315 11.7573004 3.7393201 0.0137726 0.0313368 -0.0585907
24 1 5.3281798 8.0727196 12.9588004 -0.0322133 0.007082 -0.0325511
25 1 10.3743 5.3171101 1.59796 0.0050388 0.0039583 -0.0168787
26 1 12.1637001 13.4544001 0.599549 0.0425155 0.0660593 -0.0345936
27 1 7.9649602 4.52667 6.24862 -0.0337032 0.0939 -0.0333314
28 1 8.4376097 10.0240002 13.6280003 0.0266087 -0.0556993 -0.0118617
29 1 6.1318698 4.3049798 13.1285 -0.005878 0.0178237 0.028023
30 1 6.4142399 13.3774004 7.6441002 -0.0565919 -0.0362691 7.52174e-04
31 1 10.7235003 13.6924 10.7629996 0.0199888 -0.0176185 -0.0297231
32 1 12.0007 10.1499004 3.16239 -0.0028215 -0.0207544 0.0233219
33 2 0.546589 9.2077799 9.3747301 0.0144476 -0.015178 -0.0142514
34 2 13.2086001 0.561402 7.5237499 -0.031516 0.003024 -0.0174938
35 2 5.49083 6.8561302 5.8533602 0.0247507 -0.0258396 0.0454018
36 2 10.6897002 3.8257301 4.3144999 0.0037339 -0.0120907 0.0134372
37 2 10.9899998 13.0150995 3.18664 -0.0214565 -0.0125344 0.14129
38 2 3.94087 7.4818802 8.8946104 0.0614774 0.0807075 -0.0888014
39 2 4.4035301 13.0654001 10.8269997 0.166963 -0.147694 -0.0148253
40 2 4.3449702 10.8806 7.7218299 -0.0029023 -0.0026177 0.0380068
41 2 3.5088001 10.7673998 4.6089401 -0.0966314 0.0100447 -0.0429683
42 2 9.8270302 3.71959 12.5474997 -0.0475756 -0.0028859 -0.0376092
43 2 1.34858 12.1531 13.7312002 0.0012826 0.0240169 -0.0345673
44 2 7.6455899 12.7321997 10.4162998 0.0166133 -0.0652023 0.0141671
45 2 12.6232996 3.0992501 0.320057 7.2653303e-05 -0.0197484 0.0242642
46 2 1.12099 5.5412698 13.6928997 0.024777 0.0285167 -0.0279671
47 2 6.3147502 1.3556401 13.7067004 0.0288679 0.0458885 -0.0022978
48 2 2.6667099 13.3297005 6.3850002 0.0662286 0.0752057 0.0070262
49 2 10.4653998 7.4119902 12.6205998 0.0121379 0.0136481 -0.0151403
50 2 4.0893402 2.0360601 9.1048698 8.4673996e-04 0.0416012 -0.0370838
51 2 1.85311 1.8292101 1.81925 2.8658502e-04 -0.0028874 0.0025188
52 2 6.2163 9.84649 5.2533798 0.0918132 -0.0331624 0.0437148
53 2 0.628531 5.2480102 7.57163 -0.0076884 0.0067191 0.0091253
54 2 3.39393 5.6575399 3.9619802 -0.0711692 -0.038789 -0.0068839
55 2 11.4935999 10.5808001 13.7419005 0.0093267 -0.0424139 -0.0528436
56 2 8.5356798 1.82767 6.9790302 0.0538376 -0.0656368 0.0198243
57 2 3.1405599 9.90722 1.23137 0.0391726 -0.0327204 0.0040163
58 2 6.2402902 4.7063499 9.0078096 -0.0925135 -0.0546964 -0.0684166
59 2 5.88977 3.7800801 3.1647799 0.0276103 -0.0084475 -0.0086668
60 2 7.8200698 6.8730798 0.796246 -0.0188154 -0.0044773 0.0150774
61 2 0.305671 1.03825 10.6143999 -0.0261963 0.0229305 0.0289998
62 2 9.1833096 12.7790003 0.905305 -0.0812424 0.0301765 -0.0704087
63 2 9.70502 9.4778605 6.97605 -0.0188901 0.0190611 0.0012274
64 2 1.06774 8.3166304 3.4026201 5.6729198e-04 -0.0057737 -0.0114268
