ITEM: TIMESTEP
72000
ITEM: NUMBER OF ATOMS
64
ITEM: BOX BOUNDS pp pp pp
0.2287744 13.7872257
0.2287744 13.7872257
0.2287744 13.7872257
ITEM: ATOMS id type x y z fx fy fz
1 1 1.77594 2.4567399 6.05338 0.0257665 -0.0187454 0.0136574
2 1 1.99472 10.9457998 5.2093802 0.0433637 -1.08535e-04 0.0530881
3 1 13.1520996 5.5407801 11.5881005 0.0553489 0.0907257 0.0697071
4 1 2.1675799 11.0618 11.5170002 -0.0050541 -0.0181857 -0.0299192
5 1 2.1788199 2.2777901 10.5418997 -0.0144981 -0.0047192 0.0093804
6 1 8.9672404 10.5695 5.1125302 0.0546101 -2.0431199e-05 -0.0087926
7 1 8.6747599 6.0202599 7.1852298 0.022273 -0.0209149 -0.045581
8 1 8.9583198 0.8287331 9.7079602 -0.0077193 -0.0694587 -0.0034246
9 1 5.9045802 7.9397102 1.80298 0.0042636 -0.0053608 -0.0069771
10 1 6.9157702 12.3760996 0.248637 -0.0141301 0.0119722 -0.0101993
11 1 5.7806802 11.29 10.2284002 0.0163265 -0.0241737 0.0124158
12 1 13.5663996 7.3296499 4.3640599 -0.0343025 -0.0302816 -0.0309984
13 1 2.5023501 2.26021 1.06864 -0.126133 0.181572 -0.0409029
14 1 9.0002003 3.41941 12.2503004 -0.0042012 0.0171008 0.0335898
15 1 8.8315001 8.79877 9.7098904 -0.071301 -0.0526426 -0.07006
16 1 7.0489001 1.1007201 3.49001 0.0150689 0.0190743 -0.0092532
17 1 4.4296198 7.40417 11.4925003 3.9185798e-04 0.0160186 -0.0095981
18 1 10.4826002 6.6752 1.0650899 -0.0081142 -0.118549 -0.0070833
19 1 1.50876 8.15485 7.5215502 0.0496055 -0.0557135 -0.0888718
20 1 12.3557997 12.3064003 2.05408 0.001506 -0.0025369 -0.0092906
21 1 4.6166101 8.0789099 5.63971 0.0091811 0.0927135 -7.2131e-04
22 1 12.0226002 10.7324 8.0352497 0.0475686 0.0957586 0.041589
23 1 12.1470003 2.7261901 1.01254 0.0208781 0.0092237 0.0463118
24 1 2.3762701 11.3107996 1.75085 0.0099258 0.036104 -0.075445
25 1 11.4808998 9.2121296 11.8789998 0.100502 -0.0187128 0.0646408
26 1 5.5700202 11.1711998 3.7489 -0.0021603 0.0168479 -0.0114797
27 1 5.5273299 4.9759202 4.4040399 0.0588977 -0.0774453 -0.0520719
28 1 9.3808804 9.8661804 1.54132 -0.0205608 0.0986587 0.0124954
29 1 10.0628996 2.1595099 6.2722802 0.0113426 0.0043983 -0.0117672
30 1 12.5705004 4.78508 8.2333202 -0.0131642 -0.0017983 -0.0645886
31 1 12.3928003 12.903 11.6041003 -0.0390533 0.0313772 -0.0154912
32 1 4.9913702 0.743138 8.1536303 -0.0531269 -0.0944775 -0.103851
33 2 5.9472198 3.15048 6.85674 0.0316413 0.0539169 -0.0242043
34 2 2.3352301 12.9427004 8.9779196 -0.0091318 -9.1817398e-04 0.0059121
35 2 3.8628 9.2385302 8.7034703 0.0253589 0.0658847 0.0598642
36 2 12.7445002 10.2995997 4.58391 -0.0535204 0.0028111 -0.0098808
37 2 7.77527 10.9293004 7.7056599 -0.0319751 0.0202644 0.0723166
38 2 9.5512696 11.2974997 11.0120001 -0.0120003 0.0932956 0.0148909
39 2 7.4967699 9.0308504 12.8083 0.0029887 0.002767 -0.022001
40 2 13.7230997 13.0785999 6.2234903 -0.0250151 0.0295811 0.0166022
41 2 6.2344999 2.2207 13.6784001 -0.0030989 -0.0518678 -0.0068253
42 2 13.0088997 8.0528202 9.3344202 -0.147219 -0.0252162 0.133653
43 2 13.3072004 5.68857 1.20721 0.031656 -0.0113236 0.0071957
44 2 7.3434 4.6115399 1.5280301 0.0269159 0.0636103 0.033963
45 2 3.0308499 4.7160702 12.7793999 -0.0073141 -4.3480702e-04 0.0018074
46 2 2.7582 5.31006 9.6212302 -0.0169616 0.0114916 -0.0201812
47 2 12.0723 2.87721 11.6232996 -0.030936 -0.0697873 -0.0157696
48 2 4.3164401 0.404954 1.88805 0.143252 -0.187694 0.080395
49 2 6.4379301 7.85571 7.99786 0.0418593 -0.0184395 0.0140083
50 2 10.7616997 8.5724497 6.7105098 -0.0538401 -0.0991286 -0.0387533
51 2 4.4379301 10.066 13.3274002 0.0174491 0.0020896 0.0063707
52 2 8.12537 7.8185001 4.49861 -0.0328928 -0.045395 -0.0165498
53 2 9.5748997 3.68309 9.0246601 0.0157973 0.0239048 0.0026617
54 2 12.7383003 3.71031 5.3049698 -0.0349275 0.0182883 -0.0127918
55 2 5.7624102 1.81905 10.6199999 0.0367294 0.0418092 0.0873335
56 2 12.4315005 1.71863 8.7775297 0.0023477 -0.0259291 -0.0332746
57 2 1.36532 13.5837002 13.1049995 -0.0060841 -0.0227496 -0.0025231
58 2 2.8833202 5.6300998 5.7627402 -0.049456 -0.0147785 0.0160435
59 2 0.407632 1.23004 3.22192 0.0027999 -0.0039103 -0.0023497
60 2 2.0544901 8.3354502 2.35688 0.0269041 -0.0031891 0.0014908
61 2 10.0086002 0.5947351 0.801989 -0.02321 -0.0186905 -0.0172577
62 2 9.4531203 4.6139202 4.1737599 -0.0015042 -2.8608302e-04 0.0117356
63 2 12.4890003 9.03298 1.35006 -3.1640899e-04 0.0187402 0.0063524
64 2 10.0916004 13.0578003 3.97977 4.01863e-04 0.0435821 -7.4149203e-04
