ITEM: TIMESTEP
84000
ITEM: NUMBER OF ATOMS
64
ITEM: BOX BOUNDS pp pp pp
0.208466 13.8075342
0.208466 13.8075342
0.208466 13.8075342
ITEM: ATOMS id type x y z fx fy fz
1 1 0.922018 4.65658 8.2762604 0.129737 -0.0503215 -0.0320711
2 1 12.9245006 1.41479 8.49611 -0.0343255 0.0055118 0.0252716
3 1 10.1015997 4.2434802 9.8939896 0.0214419 -0.0174364 -0.0774292
4 1 1.45214 8.2426396 9.7616396 0.0213436 -0.0140683 0.0119639
5 1 2.18329 2.57952 1.6923701 0.045263 -0.007297 -0.0811377
6 1 7.85284 10.5662003 6.85946 0.0026502 0.0837266 -0.0243775
7 1 9.20014 8.4186201 3.56637 -0.0310389 0.0459123 0.0081655
8 1 5.4520402 13.4610996 8.4359703 0.0016982 -0.0050055 -0.0177228
9 1 1.63142 5.6717901 13.0741997 0.114941 -0.0331807 -0.0241199
10 1 6.5811 1.38743 1.40798 0.031282 -0.057061 0.0739436
11 1 10.5977001 10.7511997 12.5838003 -0.102888 -0.111074 -0.184807
12 1 13.2335997 5.0866699 3.2195499 -0.0103348 0.0014116 -0.0078949
13 1 13.6931 11.2972002 1.05492 0.153948 0.0625087 -0.0040601
14 1 9.0225096 4.5983401 13.1924 -0.0250539 -0.0013237 0.0865668
15 1 12.0451002 6.8165002 13.3081999 -0.142759 -0.0173063 0.0341477
16 1 4.1599398 12.0172005 4.7929502 -0.0010545 -0.0088091 -0.0061766
17 1 5.0618501 3.8078401 7.91004 0.0052937 0.0041649 0.0215919
18 1 10.4352999 12.4189997 3.88212 0.0088288 -0.0356659 -0.0132078
19 1 12.4462004 9.5896302 7.4496103 0.0307771 -0.0779831 -0.0077537
20 1 0.512475 12.6878996 6.0132799 -0.0017541 0.0075395 -0.0225715
21 1 4.6436901 8.2053299 6.3723698 -0.0500049 -0.012939 0.0852276
22 1 9.1605101 0.859703 7.59546 -0.0071649 -0.0124479 0.0172214
23 1 10.3831997 2.2565301 2.6103101 5.0244498e-04 0.016103 0.0038321
24 1 6.4166098 7.3268199 13.7331 -0.158368 -0.0191685 0.020564
25 1 0.195958 11.8080998 10.5930996 0.0056478 -0.0233699 -0.0120478
26 1 5.24118 3.7284501 12.8298998 -0.0483331 0.056285 -0.0624667
27 1 3.1485901 5.1739502 4.9165702 -0.0125992 0.0110769 0.018169
28 1 6.3701801 11.7554999 12.7751999 0.0194697 -0.032563 -0.0088149
29 1 8.29842 3.94189 5.5914102 -0.0540337 -0.005682 -0.0318952
30 1 11.1694002 5.9942598 6.37711 0.023169 0.0275099 -0.0333198
31 1 12.9412004 1.34205 12.4136 0.0219945 0.029299 0.0109022
32 1 3.4721601 13.4174004 11.5516005 -0.0354534 0.0212049 0.0037724
33 2 8.5822697 12.0110998 1.21856 -0.0351237 -0.0167157 0.0405603
34 2 13.1581001 4.2259002 11.3059998 0.0085832 -0.0083415 -0.0260142
35 2 7.3243199 6.0594301 9.3766403 0.0012506 -0.0135311 -0.0020781
36 2 12.1632996 8.4847803 4.3337202 0.0019762 -0.0222943 0.0289511
37 2 7.8481398 12.0549002 9.7784205 0.0443541 0.044501 0.0135625
38 2 8.1150999 0.829583 4.6346202 9.0338602e-04 0.0099666 -0.0128658
39 2 13.4162998 9.1184902 12.3059998 0.0175173 0.0597222 -0.0379369
40 2 11.0450001 12.0558004 6.9063102 -0.0331826 0.0593931 -0.0063345
41 2 9.13342 7.8789002 13.5181999 0.132319 0.0388743 -0.0238003
42 2 12.3526001 6.21521 9.0911999 -0.0898618 0.129288 0.0460287
43 2 6.8940402 5.2593002 2.48539 0.00969 -0.0119889 -0.0039114
44 2 3.5019501 5.4793 1.9546602 0.0081616 -0.0050099 -0.0316867
45 2 6.2420101 9.6315604 4.4706402 0.0446541 0.0346986 -0.0773741
46 2 1.40535 7.4367199 6.6518603 -0.0049563 -0.016925 0.0118004
47 2 11.9714004 3.8348899 0.523936 0.0091839 -0.0116211 0.0264226
48 2 4.8276301 2.7602301 3.92794 0.0183966 -0.0089227 -0.0145117
49 2 3.88388 5.57266 10.3997002 -0.0145678 -0.0056875 0.0026105
50 2 9.5579996 8.3596497 7.6415301 0.0368277 -0.0508112 0.0140968
51 2 6.08886 9.6872196 9.12045 -0.0227469 -0.0665116 0.0048328
52 2 3.27563 10.9518996 8.8171997 -0.0419889 0.0192281 3.1117802e-07
53 2 6.96554 2.4687701 10.1265001 0.0014158 1.25333e-05 -0.0037176
54 2 1.59628 2.62869 4.5047102 -0.052104 -0.0169996 0.0777611
55 2 1.97573 2.07932 10.2326002 -0.0201588 0.0230815 -0.0120194
56 2 11.1087999 2.87074 6.1259098 0.021342 -0.0132262 -3.0234902e-04
57 2 2.60357 10.5384999 12.3537998 0.0098354 0.0158016 -0.0329922
58 2 1.34623 10.0747995 4.7668 0.0227507 0.0011294 -0.0104292
59 2 3.4709101 13.0486002 1.0162801 0.0020909 0.0163999 0.0127497
60 2 3.09761 9.8309803 1.7623201 -9.0703602e-04 -0.0079595 0.0325743
61 2 11.3011999 12.9937 0.422813 -0.0074932 0.125394 0.0434968
62 2 10.2187996 5.9988198 2.2674899 0.0325445 -0.0575205 -0.0042283
63 2 13.4091997 0.694481 1.96725 0.0477625 0.0435746 0.0583213
64 2 11.5424996 9.5158701 1.34709 -0.0712913 -0.11655 0.116968
