ITEM: TIMESTEP
104000
ITEM: NUMBER OF ATOMS
64
ITEM: BOX BOUNDS pp pp pp
0.4402032 13.5757971
0.4402032 13.5757971
0.4402032 13.5757971
ITEM: ATOMS id type x y z fx fy fz
1 1 2.81653 7.4659701 8.1498699 -0.0152306 -0.188891 -0.0158954
2 1 11.3374996 13.0753002 6.02988 0.0044434 0.0333709 -0.0937309
3 1 10.1478996 6.3452501 11.1842003 0.0263958 -0.0533324 -0.0139157
4 1 0.551895 0.546367 13.4771996 0.0440141 -0.0190904 0.0072444
5 1 12.5078001 3.0083399 3.1764801 0.0353756 -0.0066715 -0.0299272
6 1 8.5373402 9.45152 9.2261496 -0.0448549 -0.02806 -0.0696933
7 1 10.1731005 3.4020701 5.8456898 -0.0753046 0.0193519 0.0280102
8 1 1.37737 7.8938498 11.6903 -0.002643 0.0146367 -0.0108503
9 1 4.5170203 4.8639798 11.8491002 -0.133215 -0.0487853 0.0184577
10 1 5.4270501 9.7729397 7.3732 0.0190844 0.0189896 -0.0603779
11 1 5.2491999 9.5875397 11.5899 -0.0399141 -0.105104 -0.0926917
12 1 2.3711901 6.8899102 1.81249 0.0104282 -0.0088769 0.0631921
13 1 2.3862 1.83961 5.6118999 -0.0280024 -0.114437 -0.0026817
14 1 11.5361004 0.533468 10.0269003 0.0249967 -0.0494313 -0.0558681
15 1 7.6395898 8.3350697 1.39056 -5.9854404e-04 -0.017837 0.0658673
16 1 12.5443001 9.4707098 2.99896 -0.033796 0.0349949 -0.0168715
17 1 7.2930398 3.86056 9.6443901 0.0040492 0.028388 -0.0372927
18 1 7.36166 6.1560998 5.04632 -0.0016121 0.0050287 0.0238828
19 1 11.0615997 11.0268002 12.4415999 -0.0164418 -0.0480699 0.0379897
20 1 2.3382101 9.88902 5.5693102 -0.0273381 0.0161853 -0.0738953
21 1 4.54774 10.3233996 2.0264499 -0.0282391 0.0121442 0.0359793
22 1 8.1952496 12.0179005 1.96333 0.0452558 0.0304136 0.056448
23 1 10.2651997 1.7337901 13.4097004 -0.0313035 0.028564 -0.0100687
24 1 9.3421898 4.9737802 1.87427 0.087586 -0.0261358 -0.0273006
25 1 2.65204 2.2929001 9.3730898 0.0516905 -0.0501393 -0.0111354
26 1 5.5530801 0.917813 11.1296997 0.0735193 0.0392223 -5.7934599e-04
27 1 4.2796898 4.2653198 3.9847902 0.0257987 0.0651399 -0.0190703
28 1 5.0547299 1.05353 2.3288901 -0.0274697 -0.0193885 0.0081709
29 1 12.3942003 5.1733298 7.9418402 0.100302 0.0563809 -0.0621804
30 1 10.4413996 8.6165505 5.9846602 0.0734693 0.226035 0.363271
31 1 13.1447001 3.7278099 10.9264002 0.0073154 -0.0454001 0.004358
32 1 7.47118 13.0649996 6.7577501 0.0410994 0.0330757 0.0680204
33 2 6.3003702 11.8114996 12.9680004 -0.0403106 0.0408713 0.0344984
34 2 4.0791402 4.1844401 7.6433602 0.0286624 0.0349645 -0.0365907
35 2 6.2436199 11.6596003 9.4538899 0.0257316 0.0118708 0.0173478
36 2 11.1299 12.7382002 2.3494501 0.0288044 -0.0044483 0.0046159
37 2 12.1570997 4.69768 13.2954998 -0.0750048 0.0344631 0.169576
38 2 1.33288 4.5478101 5.6871701 -0.0069617 0.0252592 -0.0054462
39 2 8.9558602 2.18646 3.34868 0.0220784 -0.0285723 -0.0544758
40 2 10.4022999 11.2939997 8.0988998 0.0298507 0.0153854 0.0147258
41 2 8.7521801 8.81355 11.9389 0.0224869 0.0611385 0.0632977
42 2 11.1718998 7.61691 0.830696 -0.0107256 0.0256637 -0.0081166
43 2 6.98455 2.93883 5.6177502 -0.0300199 0.0147016 0.0235788
44 2 2.7002499 10.0508003 9.2865896 0.0161853 0.0822865 0.0342597
45 2 9.6686898 6.03298 7.8877802 -0.0961558 0.0286683 -0.0016362
46 2 0.618013 11.7840996 7.10993 0.0191419 -6.7991405e-04 0.048932
47 2 6.0492301 7.4799099 9.2760296 -0.0196374 0.0024838 -0.0291376
48 2 5.6354599 12.1730003 4.7134199 -0.0530492 -0.0328651 -0.0559419
49 2 1.4859801 10.0886002 0.920028 0.021103 0.0044446 -0.0196707
50 2 12.9897004 8.2633495 9.1711903 -0.0350493 -0.00906 -0.0435747
51 2 7.12326 1.87081 13.4896002 0.0409796 0.0356822 0.0126104
52 2 6.98244 6.2061501 11.8729 0.125943 0.0281821 0.0471586
53 2 3.8026099 13.2568998 7.65167 0.0318839 -0.0422601 -0.0037581
54 2 10.0375996 7.1450701 3.85513 -0.0548561 -0.2134 -0.325255
55 2 4.1518402 7.35043 4.7953801 -6.0054297e-04 0.0025178 0.0045821
56 2 13.2651997 1.94611 7.7012501 -0.0381387 0.0136236 0.0042028
57 2 0.978308 12.2964001 3.93047 -0.0011007 0.0072593 -0.0122284
58 2 6.5532699 5.5922299 2.0603299 -0.102985 -0.0082733 0.01218
59 2 8.7295304 12.9979 11.4839001 0.0302252 -0.0012964 -0.031233
60 2 3.01559 12.7447996 10.9679004 -0.0770744 -0.0311858 0.0172225
61 2 10.1681004 3.1090701 10.0705996 0.0058137 0.0556079 0.0093643
62 2 13.4153004 7.3821998 4.95742 9.3939505e-05 0.0135365 0.0209165
63 2 2.1976199 2.98349 1.63792 0.008579 0.0039021 0.0098884
64 2 8.8990898 11.0944996 4.8480302 0.015246 -0.0027419 0.001242
