ITEM: TIMESTEP
62000
ITEM: NUMBER OF ATOMS
64
ITEM: BOX BOUNDS pp pp pp
0.4134387 13.602561
0.4134387 13.602561
0.4134387 13.602561
ITEM: ATOMS id type x y z fx fy fz
1 1 1.58055 2.8984302 10.5817004 0.0135838 0.0262922 0.0568434
2 1 2.77423 0.5201381 6.09303 0.0505432 -0.0011676 0.0118264
3 1 12.5836001 5.6887498 11.4427996 -0.0345151 0.0176673 -0.0100254
4 1 9.88346 7.6679902 1.3224501 0.0546365 0.112284 -0.0170493
5 1 1.76457 12.6231003 10.8715 0.0086335 -0.0768193 -0.0629599
6 1 12.6198998 11.8427 6.10992 0.0223351 -0.0573161 -0.0263859
7 1 11.5300999 5.5820699 6.7936101 -0.0125197 0.0117333 0.019253
8 1 11.1101999 13.0145998 9.7224999 -0.003335 -0.0042917 -0.0285875
9 1 5.6417699 9.2377796 13.1478996 0.0607257 0.0276024 0.061481
10 1 6.5253501 13.118 11.6049004 -0.0064636 0.0181342 0.014017
11 1 8.2784701 2.68962 7.5206399 0.0931097 -0.0573224 -0.04215
12 1 3.2778001 8.7944699 3.81176 -0.0036401 -0.0663567 -0.105858
13 1 1.55522 1.26719 0.828905 -0.0012245 0.131536 -0.0663759
14 1 4.8431102 2.5415201 9.0369101 0.0404836 -0.048025 -0.0320735
15 1 9.2164498 9.6519099 7.6596198 -0.0260189 0.0421704 0.0311396
16 1 7.6908202 4.1213698 11.3270998 -0.0034043 -0.038049 -0.034171
17 1 2.2874401 5.1841402 3.18381 -0.174269 -0.0053226 0.0798865
18 1 8.3487997 4.7367802 1.95778 -0.0262456 -0.121235 0.0247053
19 1 5.91532 7.6535502 9.8796396 -5.5297499e-04 -0.0806338 0.0016987
20 1 12.8739996 8.5130701 3.79721 -0.0237323 -0.0095204 -0.0250037
21 1 7.5972901 6.1641798 5.1357799 0.0914194 -0.178885 -0.0041167
22 1 5.13445 11.0482998 8.7688999 0.0099755 0.0101912 -0.0275954
23 1 12.8715 2.32266 4.1995902 0.0077461 -0.0383858 0.0045768
24 1 2.1502099 9.6779804 13.0396996 -0.143808 -0.22729 0.0062643
25 1 9.3725701 11.3136997 13.1871996 0.0192942 -0.0045283 -0.0363301
26 1 5.3260002 13.3811998 3.39432 -0.0492282 -0.0030154 0.0256713
27 1 4.7253099 5.1355 0.960141 0.0422094 -0.166561 -0.230296
28 1 6.9341102 9.4129696 4.4269099 -0.0050776 0.129221 -0.0744023
29 1 9.0849199 0.698876 3.56322 -0.018384 -0.035582 -0.0323998
30 1 1.54934 8.3620997 9.6624499 0.0067501 -0.03537 -0.0148582
31 1 12.6386004 11.6411 1.5880001 -0.0024004 -0.0356351 0.0366219
32 1 4.0688701 6.1022501 6.1629901 0.0106634 -0.0086269 0.085544
33 2 3.4762399 5.1422 9.4274597 -0.0045338 0.0438509 -0.0089242
34 2 13.4036999 1.30109 7.2922502 -0.0695235 -0.0933357 9.3627501e-06
35 2 3.34058 12.0922003 13.4476004 0.134312 0.176678 0.0444877
36 2 0.972171 7.9471502 6.52388 0.0074228 -0.0164251 0.0025468
37 2 7.10782 12.1335001 5.7018399 -0.034491 -0.0162946 -0.0750727
38 2 9.9598598 13.1365004 6.3436399 0.0136526 0.0319663 0.0462922
39 2 7.6039901 9.9893104 10.8627006 0.0095291 0.0289923 -0.0112577
40 2 2.2491701 10.7213002 7.9067302 -0.0784228 0.0329069 0.0585933
41 2 4.4951301 2.33758 12.1169005 -0.0614657 0.0067766 -0.019348
42 2 11.3922997 8.2780304 9.6190996 0.0102736 -0.0074168 -0.0053797
43 2 11.4467001 1.23404 1.5498001 0.0081661 -0.0396754 0.0215473
44 2 6.6228099 4.9624702 8.0388203 -0.0551782 0.0636682 0.0224089
45 2 3.76492 2.5692301 2.5309801 -0.0054876 0.0229163 -0.007671
46 2 1.75817 4.6753302 13.1477003 0.0126571 -0.0226565 0.0212244
47 2 11.1949997 4.1497698 0.818784 0.0027368 0.0648049 -0.0146104
48 2 6.9727502 2.46121 0.651423 0.0157657 -0.0385256 0.0312697
49 2 3.81617 7.0310702 11.9488002 -0.0339908 0.0270842 0.0161267
50 2 12.4961005 5.3126602 3.97858 0.0072222 0.0398312 -0.0364693
51 2 7.2688699 11.8042002 1.97998 0.0060131 -0.0433417 -0.0101101
52 2 5.94312 7.0479798 2.51983 0.0590273 0.141155 0.157209
53 2 6.0689702 2.5163701 5.3726602 -0.0055482 0.003747 -0.0014404
54 2 0.755967 4.0109601 8.0594397 -0.0015886 0.158783 -0.0391316
55 2 7.3797002 13.1583996 8.45434 4.2524901e-04 0.0148362 0.102939
56 2 9.9447002 3.3848801 4.4383798 -0.0145405 0.0425087 0.0257647
57 2 13.0530005 7.2698398 0.817432 0.0064731 0.0213835 0.025816
58 2 6.5878701 8.0045099 7.0374198 -0.0421385 0.0858736 0.0471827
59 2 1.7325 13.0417995 3.27792 0.0020407 -0.0556537 0.0913917
60 2 3.9612402 10.8943996 5.5378199 0.104561 0.098199 -6.4741903e-04
61 2 9.5513802 1.22215 11.9778004 -0.0239757 0.0025041 0.0058927
62 2 7.09547 6.5254402 12.9557 0.0422302 0.038638 -0.0514449
63 2 10.3477001 8.1819201 5.3600102 -0.0144292 -0.0819236 0.003925
64 2 9.8178702 10.7979002 3.94765 0.0055154 0.0412513 -0.0320101
