ITEM: TIMESTEP
82000
ITEM: NUMBER OF ATOMS
64
ITEM: BOX BOUNDS pp pp pp
0.2431641 13.7728358
0.2431641 13.7728358
0.2431641 13.7728358
ITEM: ATOMS id type x y z fx fy fz
1 1 1.73393 4.2430301 7.97015 0.0055146 0.0974659 -0.141103
2 1 13.4868002 1.26406 8.2096005 0.0140086 -0.0838347 0.0386645
3 1 10.96 5.7158098 11.2926998 -0.0195833 -0.0217375 0.0279518
4 1 1.89366 8.3247299 8.4556504 0.120907 0.0240422 0.107191
5 1 2.6629601 1.89991 13.1260004 -0.13505 0.120791 -0.04771
6 1 9.3309202 10.5474997 6.3316698 -0.0593275 -0.0157551 -0.0374614
7 1 8.6072197 6.3580999 4.6327701 0.0801954 0.0168857 -0.0173855
8 1 5.54351 0.219991 8.3221998 0.0438688 -0.0072901 -0.011359
9 1 0.6133271 7.2122202 12.0295 -0.0175862 0.050673 0.0275014
10 1 7.77282 1.43477 0.413768 -0.0016269 -0.0118116 0.0130523
11 1 7.8386102 8.4539404 10.5633002 0.123986 0.109187 0.177376
12 1 1.10435 6.62429 3.08395 -0.0258961 -0.0072185 0.0191689
13 1 2.1684899 11.1829996 1.21938 0.0027163 0.0869001 -0.102265
14 1 7.1581001 5.1103702 1.50174 -0.0016753 -0.0574895 0.0109572
15 1 10.7517004 6.67907 1.45626 0.042247 -0.0291657 -0.0210893
16 1 5.1742902 0.260262 4.4685302 -0.032318 -0.0358901 -0.0318551
17 1 7.73907 3.58568 8.7546101 3.9170602e-04 0.00886 -8.0507202e-04
18 1 10.8821002 13.2202997 3.5297899 -0.007094 -0.0066677 0.0695007
19 1 12.6248999 9.4006796 6.7876802 -0.0433421 -0.121773 0.0230489
20 1 0.871805 11.1042004 4.4246602 0.0228329 0.0118161 0.0277373
21 1 7.0155802 7.2016702 7.6473198 -0.16712 -0.0321326 -0.171447
22 1 9.8495798 13.6549998 8.3523102 0.0140612 0.0380493 0.0140057
23 1 11.9937 3.1491399 1.9503 0.0121662 -0.06866 -0.0356812
24 1 4.1583099 9.1810303 12.4448004 0.025041 -0.0869798 0.0598504
25 1 12.1449003 11.7493 11.4846001 0.0053087 -0.0032233 -0.0463308
26 1 3.4440401 5.4087901 10.8871002 0.016368 -0.0038728 0.126337
27 1 5.1642499 5.33497 4.6774302 -0.0602111 -0.0196213 0.0243115
28 1 7.6907902 10.9569998 0.45513 -0.0078416 -0.0575611 -0.0905384
29 1 8.0721903 2.32299 4.6494999 0.0532243 0.0693095 -0.0152381
30 1 11.6962996 5.4951802 7.0522599 0.0211106 -0.019703 0.0033169
31 1 11.3762999 1.59969 11.6485996 -0.0122892 0.0970023 0.0097817
32 1 3.57844 12.2423 10.9660998 -0.0379709 0.0627015 -0.013374
33 2 7.8495898 12.3382998 2.92551 0.0165892 0.0693716 0.0885638
34 2 13.1576996 3.90399 10.0733004 -0.0242965 -0.0027979 0.0139157
35 2 5.06918 7.6468702 10.0985003 -0.00595 0.0253533 -0.0694613
36 2 11.9013004 8.4355202 3.91236 0.0468935 -0.0184301 0.0269346
37 2 8.7025604 11.0256996 9.3015003 0.0118275 0.012613 0.009419
38 2 7.91212 13.2663002 6.0837002 -0.0258888 -0.0241972 0.0107035
39 2 10.9350996 9.3965101 12.6306 -0.0465351 -0.0751901 0.0660318
40 2 12.0367003 12.2210999 6.6528902 -0.011698 0.074629 -0.0175655
41 2 6.8203001 7.0739298 12.9262 -0.0297763 0.109717 0.0318717
42 2 11.526 9.1838102 9.5844403 0.0018236 -0.0112327 -0.0066561
43 2 4.5349698 2.7957201 2.1289001 0.0165415 0.0266174 0.0227134
44 2 3.2101901 8.6236601 2.0174301 0.0045714 -0.108556 -0.0095673
45 2 6.78753 8.6306601 3.7777601 -0.0668542 -0.0150294 0.0381437
46 2 1.03679 6.5398202 6.36446 -0.0382976 0.0557317 -0.0886684
47 2 0.503983 4.4973102 13.6582003 0.0122833 0.0084883 -0.0146709
48 2 4.2427802 2.3399501 6.6457701 -0.0221038 -0.0016646 -0.0399619
49 2 4.7201901 4.8228598 8.3582296 0.068427 0.0329383 -0.0472742
50 2 9.5033198 6.4559899 8.8713398 0.0210184 -0.009645 -0.0042623
51 2 5.64182 10.5145998 8.3882103 -0.0109252 -0.0060999 5.0404301e-04
52 2 1.80931 11.4919005 7.3517599 -0.0029612 -0.0078979 0.0183236
53 2 6.82263 4.3308602 11.8330002 -0.0032162 -0.0767821 -0.0347442
54 2 0.378221 3.71646 5.3233199 0.0107186 -0.0261755 -0.0366874
55 2 2.7112401 2.7214201 10.0559998 0.0481021 -0.170581 0.10891
56 2 11.3994999 2.16623 6.3722701 -0.0770141 0.0057014 -0.0291367
57 2 1.16592 10.3164997 11.8591996 0.0468602 -0.0263076 4.6015301e-04
58 2 3.15451 8.9678402 5.3354201 -0.008039 -0.0012813 0.0079394
59 2 4.6465202 13.7004996 0.428524 0.131817 -0.151983 0.0369125
60 2 4.87394 11.0181999 2.8115301 0.014802 0.0586859 0.0050041
61 2 10.6764002 13.1694002 0.582968 -0.0125343 -2.78494e-04 -0.0494311
62 2 11.1574001 4.8874202 4.1089101 -0.0096562 0.0336702 0.0211291
63 2 0.318166 13.2620001 2.45892 -0.0196261 0.0464777 -0.0230099
64 2 9.3642302 9.0647802 2.3521099 -0.0119187 0.0708402 -0.0324936
