ITEM: TIMESTEP
70000
ITEM: NUMBER OF ATOMS
64
ITEM: BOX BOUNDS pp pp pp
0.3349901 13.6810103
0.3349901 13.6810103
0.3349901 13.6810103
ITEM: ATOMS id type x y z fx fy fz
1 1 1.28881 2.96431 6.1075001 -0.0470423 0.014481 0.03173
2 1 2.8586 9.9052696 5.9320502 -0.0328371 0.022476 0.0361086
3 1 13.3971005 4.6957999 11.7079001 -0.0266393 0.107349 -0.075413
4 1 1.4297 10.3099003 12.6092997 -0.108614 0.0493404 -0.0940432
5 1 13.2763996 1.0825501 10.0977001 -0.0192129 0.0287208 0.0188251
6 1 10.1449003 12.0916996 6.0819101 0.0125663 -0.0116479 -0.0088056
7 1 9.8216496 6.0244002 5.3669 0.0836927 0.0023733 0.0790425
8 1 9.5365401 0.853677 9.2395401 0.0018798 -0.0128957 0.0573631
9 1 6.1500201 8.1104498 1.4730701 -0.0147291 0.0269697 0.0128324
10 1 6.6659799 11.7349997 13.5684996 -0.0120112 -0.0369976 -0.0079013
11 1 6.0962 12.0461998 9.4974003 -4.3636198e-04 -0.0178431 0.0023118
12 1 0.644058 7.8371001 3.48966 0.0588775 0.0577586 0.0107458
13 1 3.8267501 2.5862401 1.92773 -0.0287403 0.0063008 0.0118692
14 1 8.1261501 5.1718798 10.8618002 0.0498171 0.0687933 0.124278
15 1 8.99193 7.9972602 9.0467997 0.0530111 0.0324603 -0.044768
16 1 7.2111602 1.8364201 1.2540801 -0.0107258 0.0029095 -0.0196222
17 1 3.1087699 7.2819801 12.9375 0.0040457 -0.121671 0.024406
18 1 11.4209996 5.6276598 2.0139401 -0.069546 -0.0039444 -0.0739641
19 1 1.7940201 7.5109401 9.3740597 -0.028408 -0.14023 0.0057762
20 1 12.8512002 12.2889004 2.2525001 -0.0235425 -0.022286 0.0657015
21 1 5.04005 6.74824 7.0025201 0.0141121 -0.0095291 -0.0048955
22 1 13.0711002 11.0153999 8.1692696 0.016551 -0.0729232 0.0217499
23 1 13.5953999 2.7300501 1.28832 -0.0587516 -0.102975 0.0652197
24 1 3.3531599 11.0629997 2.03194 0.0353495 0.0118137 0.0798636
25 1 9.3233204 8.8101101 13.5226002 0.0385813 -3.85242e-04 -0.127048
26 1 6.7256599 10.8958998 4.5722399 0.0115013 -0.0456562 -0.0028705
27 1 6.97291 4.4652 4.25068 -0.136035 -0.0075624 -0.0795311
28 1 10.3550997 9.0371304 3.4540601 0.0339958 0.0491956 0.0860764
29 1 9.26686 2.50243 6.0966601 0.0464634 -0.059222 -0.0382554
30 1 12.1195002 5.8744402 8.0554504 0.0288936 0.0549917 0.0227159
31 1 11.2690001 12.0424995 12.1289997 0.0198814 0.0094096 0.0591811
32 1 4.8164902 0.867648 6.1764698 -0.0150033 0.0103484 -0.0085794
33 2 3.6970101 3.82302 4.7423702 0.0660745 0.0118335 -0.0094484
34 2 2.69662 1.1683199 9.0291796 0.0445391 -0.0213506 -0.022947
35 2 2.84446 10.0649004 9.0806904 0.0536058 0.148205 -0.0144832
36 2 13.2005997 10.6469002 4.7879501 -0.0045651 -0.0114106 0.0264706
37 2 7.0695 9.0907898 6.9954902 -0.0184989 0.0374502 0.0517916
38 2 10.3949003 10.7791996 9.6705904 -0.038775 -0.0100077 -0.0464881
39 2 6.81142 8.3965397 10.9448004 0.0295364 0.029906 0.0499257
40 2 13.4840002 13.665 7.0369601 -0.001852 0.0133978 -0.0213191
41 2 2.21047 2.9388102 12.4132996 0.0823366 -0.0454311 -0.0072816
42 2 10.8789998 6.38515 12.3457003 -0.0156764 -0.0036784 -0.0115313
43 2 1.0513099 5.5572801 1.51631 0.0411378 0.0260671 -0.0250151
44 2 7.23069 5.3806901 0.86039 0.057804 -0.0386755 -0.0207606
45 2 4.4649701 5.7069998 2.1684799 -0.0465567 -0.0117952 0.016545
46 2 2.36448 4.29947 8.7423601 -0.0158943 0.0321585 0.0095363
47 2 11.1020002 2.9472402 12.4819002 -0.0161748 -0.0255896 0.0072854
48 2 5.3522902 13.1353998 3.2383499 -0.0141257 0.0487991 -0.0370589
49 2 4.9324498 6.1480098 10.1988001 -0.0376791 -0.0337223 -0.0122394
50 2 10.7356005 9.0953798 6.90415 0.026462 -0.0097738 -0.0523869
51 2 4.3416 9.85604 12.0979996 0.0273582 0.0478459 0.0171891
52 2 7.6624499 7.54354 4.4826298 -0.10647 0.0587853 -0.103943
53 2 8.3079701 4.8097401 7.7002301 1.5095001e-05 0.065446 0.0020332
54 2 12.5748997 5.5648699 4.7216802 0.0737338 -0.0621551 0.0506566
55 2 6.89363 2.96894 9.7023201 -0.0809661 -0.159589 -0.0409729
56 2 11.8649998 3.0090499 7.80789 -0.0112998 -0.0663781 0.0029784
57 2 0.712012 13.2600002 13.1683998 0.0263175 0.0401069 -0.0647841
58 2 2.0720201 6.41889 6.1850901 -0.014943 0.017381 -2.9470302e-05
59 2 2.0241001 0.602762 3.59477 0.199302 -0.0792084 -0.0388547
60 2 4.5257702 8.6580496 3.87867 -6.0305901e-04 -0.0131966 0.0023471
61 2 8.7137099 0.365601 12.3251 -0.0025797 0.0091494 -0.017605
62 2 9.6774998 2.8494502 2.3326299 0.0729139 0.0432659 0.0427962
63 2 12.7094002 8.6162396 0.774332 -0.02509 -0.0040338 0.0127854
64 2 12.8153 1.578 4.0862398 -0.226331 0.0762755 0.0247084
