ITEM: TIMESTEP
96000
ITEM: NUMBER OF ATOMS
64
ITEM: BOX BOUNDS pp pp pp
0.2442814 13.771719
0.2442814 13.771719
0.2442814 13.771719
ITEM: ATOMS id type x y z fx fy fz
1 1 3.00036 7.9699102 8.6352701 0.0504316 -0.027705 0.0066759
2 1 12.7298002 0.307276 7.4872098 -0.0083336 -0.0205172 0.0033021
3 1 9.0515099 4.84371 10.099 0.0560516 -0.011021 5.0871801e-04
4 1 0.23984 9.58953 13.0781002 -0.0359199 -0.038411 -0.0082173
5 1 0.718603 2.07038 3.4772101 0.0495638 -0.0846694 0.0088768
6 1 6.7131801 8.3001099 7.24016 0.0270313 0.100169 0.0450198
7 1 7.1638899 5.5910702 4.3561902 0.001373 -0.0441203 0.0210769
8 1 3.59885 8.1508198 12.5763998 -6.4036904e-04 0.0313526 0.0095303
9 1 2.2829001 3.86107 12.0263996 0.044559 0.0810571 0.0244591
10 1 5.24018 13.1220999 6.3563199 0.0080553 0.009155 6.6106e-04
11 1 7.1956 10.7206002 0.392312 0.0230646 -0.0165422 0.0310252
12 1 2.1272099 6.8543402 4.93008 -0.0755842 0.0105507 0.0590671
13 1 2.77299 0.487968 9.59511 0.0039143 -0.054116 3.7793899e-04
14 1 9.8170405 0.455739 10.2950001 -0.0078691 0.0042273 0.0028966
15 1 12.0788002 6.2571402 0.46557 0.115505 -0.005102 -0.0197713
16 1 12.7571001 8.68363 3.3434501 0.0095051 -7.3563099e-04 0.0056745
17 1 5.61657 5.7111302 10.3176003 -0.016127 0.0197422 -0.167182
18 1 9.1314402 8.71315 4.0665102 -0.0248944 0.0417318 -0.0071299
19 1 11.6327 10.5014 9.5097504 -0.0047697 0.0030328 0.030169
20 1 0.919351 10.5781002 7.0043602 -0.0063121 0.0201473 -0.0276823
21 1 4.751 9.4829102 4.01197 0.0592212 -0.069487 0.0927216
22 1 9.0827398 12.2847004 5.5838499 -0.0165683 0.0377458 -0.0025122
23 1 11.5458002 2.3536101 0.73971 -0.0150947 0.003031 -0.0038694
24 1 8.73555 6.1866202 1.19012 -0.0996457 0.0217744 -0.0273962
25 1 1.6917 12.8911 12.8811998 0.0089831 0.0025685 0.0060505
26 1 6.2879 2.03648 11.0368996 -0.020542 -0.0161266 0.05513
27 1 3.64095 5.3998499 2.1729801 0.149824 -0.122552 -0.0097591
28 1 5.52003 2.2841799 1.59284 -0.012499 -0.0259547 -0.0891745
29 1 11.9013996 3.4024701 5.99153 -3.9098902e-04 0.0941672 -0.0897948
30 1 13.0998001 7.1968899 7.9039402 -0.0848087 0.0350968 -0.0255499
31 1 0.462842 4.0116701 9.0802097 -0.0281258 -0.0583723 -0.0292915
32 1 4.72716 3.4365399 6.49437 0.0260497 0.00516 0.0083565
33 2 5.7027402 12.1885996 3.18558 0.0194366 0.0350526 -0.0107389
34 2 1.75953 3.7960801 6.2936902 -0.0414747 0.0220915 -0.0247256
35 2 3.9159602 10.5843001 7.5532198 0.0318046 0.0214486 -0.0132738
36 2 9.3114796 11.3304997 11.8651 0.0089613 0.0160437 -0.0908482
37 2 8.6126805 0.382495 13.5642996 -0.0095956 -0.025995 0.0057237
38 2 2.1797199 0.599067 6.6760803 0.0038204 -0.0091135 -0.0348909
39 2 12.2487002 13.2090998 4.6181102 -0.0076791 -0.0011622 -0.0250715
40 2 10.8367005 10.0867004 6.5418802 0.0569497 -0.0053124 -0.0292915
41 2 11.2981997 7.88086 11.3631001 0.0070635 0.0018788 -0.0057959
42 2 1.36967 6.8017802 10.8837996 -0.0270529 -0.0194476 0.0121359
43 2 9.6911297 3.6244099 3.87064 -0.0053646 -0.0016079 -0.0338959
44 2 13.2540999 13.7459002 10.3378 0.0010592 -0.001232 0.0655657
45 2 8.7060604 4.5447798 6.96099 -0.020958 -0.0024882 0.0119688
46 2 3.47087 3.3045001 9.3243199 0.0454833 0.0548149 -0.0162603
47 2 7.3179302 8.0099897 11.8606006 0.0168135 -0.0063383 -0.025049
48 2 6.6426401 2.3141201 4.25632 0.0209762 8.9140502e-05 0.0753708
49 2 1.5136401 7.0959301 1.73665 -0.122483 0.149124 -0.062755
50 2 9.3934097 8.0101404 8.2573404 0.0614141 -0.0462755 0.0584308
51 2 4.9358302 5.5341802 12.9939004 -0.0181915 -0.0711683 0.132981
52 2 1.46278 10.8237 10.2272997 -0.0034073 -0.0063094 -0.0020606
53 2 7.15377 2.0680201 8.2157202 0.0013876 0.0033733 -0.0410935
54 2 13.6215 4.8698302 3.3259201 -0.0409115 0.059988 0.0173679
55 2 4.8842902 6.6244502 5.9814302 -0.0951634 -0.0789065 -0.0344754
56 2 11.0486002 2.7858801 8.6680098 -0.0135581 -0.0137912 0.0709455
57 2 3.20049 10.2032003 1.74777 -0.0630989 0.0190706 -0.103725
58 2 5.9172002 8.12148 1.08833 -0.0171522 -0.0258933 0.0762562
59 2 6.92243 12.5588999 9.2035904 -9.8813602e-05 -0.0050501 0.0058733
60 2 5.35566 12.8641006 13.1395998 -0.0435157 0.0544289 -0.0164153
61 2 8.6580601 3.42379 13.3280001 -0.0101734 0.0403127 -0.0206047
62 2 10.5523997 6.3868399 5.3397598 0.049259 0.0164767 -0.0059462
63 2 2.3584199 2.00962 0.650458 0.0150991 -0.0370539 0.0957305
64 2 10.1448002 9.5594101 0.60151 0.0253433 -0.0623258 0.0643177
