ITEM: TIMESTEP
108000
ITEM: NUMBER OF ATOMS
64
ITEM: BOX BOUNDS pp pp pp
0.2812846 13.7347155
0.2812846 13.7347155
0.2812846 13.7347155
ITEM: ATOMS id type x y z fx fy fz
1 1 3.90268 5.2000799 6.2269702 0.171306 0.0537125 0.0207592
2 1 13.3873997 0.902467 5.9956102 -0.0056831 4.6352902e-04 0.0029499
3 1 11.5150996 6.6355701 10.7918997 0.0426381 -0.134804 0.0058605
4 1 0.941158 1.05203 13.4264002 0.0241029 -0.0216553 0.057988
5 1 11.7784996 3.7619 13.6401997 -0.0109907 0.0020514 -0.0247421
6 1 7.82579 8.3866902 10.7061005 0.0030363 -0.0073003 -0.0074755
7 1 10.0739002 3.1624899 7.85353 0.0144557 0.0155829 -0.0104127
8 1 1.29655 8.4164305 10.9102002 0.0457402 -0.0543168 0.0385507
9 1 5.2587199 2.73488 13.0212002 -0.0076923 -0.035493 -0.0654515
10 1 5.4151101 8.90061 6.6380101 -0.0254076 0.0333229 -0.0079924
11 1 3.76246 7.00875 0.85683 0.0431794 0.0479023 0.0202085
12 1 0.387648 4.9847002 3.05633 -0.0095318 0.0367455 -0.0046898
13 1 0.708486 11.6055002 9.5605898 -0.0628416 0.0112134 -0.0408655
14 1 9.1109505 12.6061001 9.1443005 0.0445612 -0.0226302 -0.0021646
15 1 9.06598 9.61197 2.74944 -0.0377001 -0.020043 -0.0280881
16 1 9.9734602 12.3767004 5.2365499 -0.0374112 0.0350076 -0.053283
17 1 6.90345 4.7230201 9.1340399 0.0828463 0.0550036 -0.157538
18 1 8.0227203 6.4587403 5.87497 0.0407232 -0.0474144 0.115701
19 1 11.3290997 9.9830104 11.0914001 -0.12826 0.128778 0.0018019
20 1 0.849826 10.4091997 4.9716602 0.095754 -0.142636 -0.0834882
21 1 3.80496 11.1141996 1.26694 -0.0373491 0.0209134 -0.0171666
22 1 7.2722502 12.9033004 1.9164 -0.0045209 0.0010991 -0.0637096
23 1 8.4740496 1.49877 11.8800002 0.0770776 0.026987 0.0433129
24 1 9.5656405 5.7468701 2.4612999 0.0408572 0.0815133 -0.0178274
25 1 2.53947 2.2070899 8.9970304 0.11943 0.0277034 -0.063646
26 1 5.7959299 0.566353 9.7156296 -0.056848 -0.0071285 -0.029548
27 1 5.4740901 3.6494501 2.8305199 -0.0356431 0.0215451 0.166284
28 1 3.29653 13.4078999 4.43468 -0.061482 -0.01227 -0.0162708
29 1 0.8192081 7.1022401 6.8952098 -0.112542 -0.137495 -0.0709522
30 1 11.184 8.8230305 5.71029 -0.0719982 -0.0833322 0.0306309
31 1 12.8978996 1.72874 10.2231999 -0.155746 -0.0035853 0.0118939
32 1 6.6655302 13.6448002 5.3385902 0.0075231 0.0302373 0.0783818
33 2 4.0052199 1.01097 1.6151001 -0.0131942 -0.0332756 0.0189527
34 2 5.75035 2.7818401 7.0050201 -0.004452 -0.0146929 0.0037469
35 2 6.0874 10.7040005 9.4732905 0.003284 0.0785426 0.0289276
36 2 11.3004999 13.1863003 12.0965996 -0.0032224 0.0062011 -0.0139705
37 2 13.5916004 7.45362 0.431577 -0.0698255 0.105637 -0.0054342
38 2 1.34351 4.2355399 5.77559 -0.137269 -0.0844016 7.0309596e-04
39 2 12.3417997 2.2418699 3.07495 0.103634 -0.0265935 -0.0435276
40 2 12.4575005 8.7590599 8.61726 0.0070165 0.0054733 -0.0018924
41 2 6.8558602 8.8147898 0.286305 -0.0101885 -0.0047427 0.0149151
42 2 10.2272997 7.7527299 13.5274 -0.0060532 0.0091022 -0.0105845
43 2 9.71416 2.8200701 4.1782999 -0.114156 0.0022753 0.0388446
44 2 3.8172801 10.2305002 11.8644 -0.0071204 -0.0253835 -0.0177185
45 2 9.7386103 6.7428198 8.3744803 -0.0108129 0.0098828 -0.0253563
46 2 12.231 11.4113999 6.6324301 0.0309041 0.0471086 0.138051
47 2 4.6370402 8.0909596 9.5044403 0.108809 -0.135703 0.0983312
48 2 5.5206499 10.8252001 3.6250401 0.0373055 0.0023988 0.0553449
49 2 13.0684996 10.6519003 13.2571001 0.069574 0.0204576 0.0532015
50 2 2.39397 9.0181999 8.0637198 -0.0219102 0.181705 -0.0119009
51 2 7.6877599 4.24335 1.03274 -0.0418093 -0.0656467 -0.114897
52 2 9.0726099 4.9738102 10.9477998 0.0416644 -0.0311302 0.0871155
53 2 2.0413799 11.9594002 7.01155 0.0793562 0.106356 0.012028
54 2 10.7300997 5.66256 5.0440502 0.111025 0.0135156 0.0976999
55 2 2.28928 7.30157 4.2488098 0.0115902 0.0048522 -0.0178147
56 2 4.66395 4.06457 10.5537997 -0.187543 -0.0202617 0.0276436
57 2 13.4387999 12.1422005 2.8714002 -0.0170554 0.0756788 -0.0548279
58 2 6.55336 7.2014198 3.62499 -0.0725062 0.0380801 -0.122024
59 2 8.3576403 11.3733997 12.2989998 0.0082883 0.008584 -0.0160424
60 2 2.5385499 13.1150999 11.2051001 0.0501735 0.0586485 0.0207008
61 2 13.0029001 4.8325 8.4883299 -0.0239716 -0.0184182 0.0226625
62 2 12.1176004 9.1065302 2.7948699 0.0063202 -0.0049219 0.0103264
63 2 1.67653 5.0685601 13.7011996 0.0375501 -0.181883 -0.0338831
64 2 8.1346998 10.4554997 7.2684398 0.0430104 -0.0271226 -0.0683321
