ITEM: TIMESTEP
50000
ITEM: NUMBER OF ATOMS
64
ITEM: BOX BOUNDS pp pp pp
0.2376349 13.7783652
0.2376349 13.7783652
0.2376349 13.7783652
ITEM: ATOMS id type x y z fx fy fz
1 1 2.2830801 4.41152 10.6342001 0.028065 -0.00313 0.0041104
2 1 10.9741002 13.4146004 8.3434401 0.0426093 0.060113 -0.0042341
3 1 12.2585001 5.1884098 9.9126302 -0.0493545 -0.054903 0.005321
4 1 10.3823996 7.7602 1.53597 -4.8460298e-04 0.0176723 0.001031
5 1 2.8487302 7.79457 7.2470298 -0.0110127 0.0307486 0.0313976
6 1 12.9203998 9.5643502 10.3549004 -0.0426063 0.079338 0.0168045
7 1 13.2285996 6.5222302 5.86829 -0.0896019 0.0287051 0.0037922
8 1 1.5791301 0.54388 10.2171002 0.0117735 -0.0036503 0.0054513
9 1 6.43786 12.5738001 11.0099001 -0.0304796 0.037124 0.0635201
10 1 3.5878501 1.36809 0.302028 -0.0650887 0.0364322 -0.047228
11 1 8.9553204 5.02388 6.37221 0.0407236 -0.013748 -0.046586
12 1 4.9052902 8.6478796 3.20698 2.8166399e-04 -0.0141643 0.0104539
13 1 11.1450996 3.4960599 1.01229 -0.0369654 0.0027142 -0.0538388
14 1 4.0844202 2.3591001 7.51645 -0.0059038 -0.0500088 0.0389548
15 1 7.8748598 11.7505999 7.96023 -0.0531757 -0.0283343 -0.0454739
16 1 9.0914097 2.6724701 10.3011999 -0.009834 0.0236208 -0.021962
17 1 0.74727 4.3635202 2.9979602 0.0027489 -0.0154955 -0.0066485
18 1 8.1654596 9.7530203 12.4497996 -0.0151391 -0.0338084 0.0070858
19 1 4.8385401 6.6820202 12.8149004 0.004419 -0.0037254 0.0022088
20 1 1.25113 10.1499996 4.74052 0.0367431 -0.0219876 0.106776
21 1 7.04883 7.3018198 9.5778399 0.0375042 -0.0462801 0.0036067
22 1 6.06393 13.5228005 2.32776 0.0468476 0.0110743 0.0666483
23 1 9.5903902 13.7029 5.0262599 0.010807 0.0615346 -0.0322911
24 1 3.66239 10.3365002 12.3451004 -0.0111085 -0.0267771 -0.030157
25 1 0.762368 8.7318602 1.22611 -0.0082012 -0.0189464 -0.0224425
26 1 1.7906801 13.4224005 6.1261401 -0.0150723 0.0158635 0.013451
27 1 4.5783501 4.6100502 2.75348 -0.0111909 5.1126099e-05 -0.0044487
28 1 9.1034498 11.4624005 2.4711001 0.0332927 -0.0871456 -0.12851
29 1 7.2271099 3.61447 13.7315998 0.0160241 -0.0015994 -9.2575798e-04
30 1 5.3998599 5.40766 6.4229203 -0.0038217 0.0511163 -0.0615887
31 1 12.4164 13.5872002 13.7131996 -0.0801889 -0.14332 -0.160062
32 1 10.6585999 10.3549004 6.00702 -0.0344185 -0.0643033 -0.0572462
33 2 4.75137 1.5118901 10.8392 -0.0312787 0.0273109 -0.0093187
34 2 12.1028996 2.3206601 11.4783001 -0.0303001 0.0050755 -0.0489693
35 2 1.71199 12.5031996 13.0130997 -0.0182813 0.0202041 0.0016876
36 2 11.1995001 3.52229 3.94029 -0.009524 0.0166414 0.046162
37 2 12.9546004 11.0295 7.5106802 0.0859159 0.0303932 0.0417895
38 2 8.7849703 2.0773101 7.0292001 -0.0105756 0.0206658 0.0731513
39 2 9.52876 0.282064 12.0890999 -0.0048642 -0.0249513 0.0157822
40 2 2.28279 11.0677996 8.9467402 -0.0017531 -0.0043043 0.0196208
41 2 4.7067499 12.6625004 7.43119 -0.0112056 -0.0146958 0.0341862
42 2 10.7124996 10.9850998 13.4834996 0.0358096 -0.0100466 -0.0021132
43 2 9.1271801 0.954574 2.00425 0.0054001 0.0237992 -0.0126291
44 2 5.86999 4.41395 9.1858196 0.0059414 -0.0184571 0.037403
45 2 12.5233002 0.755817 2.8639 -8.8808098e-04 0.0297521 0.146633
46 2 0.39127 2.41939 0.332385 0.130251 0.100383 0.0464743
47 2 8.5102196 6.5739002 12.6011 0.0562145 -0.0642026 -0.0924899
48 2 3.6436701 1.51729 3.62077 -0.0405559 0.0167919 -0.0204057
49 2 0.820644 7.2030001 9.7090798 0.100678 -0.0505895 -0.0380486
50 2 8.7966404 5.4933501 2.8859502 -0.0232412 -0.0288493 -0.0132805
51 2 12.3410998 10.0764999 3.3248 -0.109111 -0.0047708 -0.0609866
52 2 7.8354502 10.9659004 5.0178399 -0.0482512 -0.0043939 0.0351121
53 2 12.606 2.6486199 6.6201101 0.0036744 -0.0134954 0.0257718
54 2 1.8528 7.3153701 3.79916 0.024351 -0.0199929 -0.0043524
55 2 5.5938602 9.8501396 9.4045401 -0.0236819 0.0520741 0.0103521
56 2 6.0943799 0.938484 5.40834 0.0579399 0.0153033 -0.0123378
57 2 2.84568 10.6398001 2.35567 0.0227463 0.0448676 -0.0609277
58 2 1.82075 4.6716199 6.7452798 0.0494981 -0.0195882 0.0156991
59 2 7.0188699 7.87735 1.14652 -0.0430603 0.0518403 0.0912114
60 2 5.81247 10.9967004 0.769891 0.033047 -0.0209852 -0.0012533
61 2 12.4826002 12.5697003 10.6702996 0.0244991 -0.0115848 0.0617631
62 2 1.94761 5.7443199 0.331404 0.0052929 -0.0016132 0.0039081
63 2 10.4125996 6.8491502 8.1663799 0.0143547 0.0453683 0.015195
64 2 10.2532997 7.60918 4.7997399 0.0127666 -0.0127312 -0.0017609
