ITEM: TIMESTEP
38000
ITEM: NUMBER OF ATOMS
64
ITEM: BOX BOUNDS pp pp pp
0.377958 13.6380425
0.377958 13.6380425
0.377958 13.6380425
ITEM: ATOMS id type x y z fx fy fz
1 1 8.2641001 5.0987802 12.5595999 -0.0707041 0.138281 -0.107455
2 1 12.9899998 3.1076701 4.9536 -0.0340887 -0.0089412 0.0478347
3 1 12.7837 4.91532 11.4934998 -0.0719374 0.0110844 -0.0120119
4 1 9.0755901 3.34881 2.09865 0.0726858 -0.0973322 0.0777756
5 1 12.9000998 7.1003199 8.1117401 -3.7698598e-04 0.0110483 -1.04128e-04
6 1 10.6682997 3.2212401 8.5096598 0.0096304 0.0435807 -0.003619
7 1 3.5899501 5.4876499 10.5109997 -0.0095359 -0.0598268 -0.0211036
8 1 12.9562998 11.4888001 5.4910999 0.0518335 -0.0037258 -0.0087539
9 1 2.8225301 1.92074 12.0469999 -0.0040278 -0.0166806 0.0296301
10 1 1.73964 5.8850002 2.87019 -0.0985497 0.0165877 -0.0537833
11 1 8.1535902 7.0789499 4.5225802 0.0032747 -0.0026715 -0.0112538
12 1 5.4250498 9.1843596 2.28561 -0.0065994 -0.0413143 0.0112723
13 1 3.8187399 1.2115001 4.20713 0.0262273 0.0605269 0.0515913
14 1 3.7269399 12.7537003 9.0078697 -0.0371406 0.0341869 -0.0014376
15 1 9.4871903 11.7538996 6.0746398 -0.047955 0.0360877 0.0012271
16 1 8.15979 13.6127997 8.9805098 -9.9766408e-04 0.136934 -0.0852919
17 1 3.3052299 4.56635 5.8122101 -0.0032147 -0.103876 -0.0268149
18 1 11.7243004 10.9901 9.2384396 0.0116023 -0.159647 -0.0945471
19 1 13.3298998 9.6876297 13.3985996 -0.046238 -0.280676 0.0435903
20 1 2.6961301 8.8776102 5.3319202 0.0139251 -0.0111965 -0.0074386
21 1 8.9203998 7.10747 8.8779602 0.0170614 -0.049924 -0.091373
22 1 3.18097 12.1753998 1.6596101 -0.0209768 -0.0449384 -0.062238
23 1 6.9991598 12.5170002 2.3127799 -0.0095462 -0.0440983 0.0608692
24 1 4.3674502 8.9168596 11.2679005 2.3285699e-04 0.0435098 0.0165127
25 1 11.3834 6.8055001 1.50024 -0.0270487 -0.0177506 -1.00702e-04
26 1 12.7535 13.5850001 2.0403399 0.0433968 -0.0290043 0.0365018
27 1 7.75172 3.56774 6.0159402 0.0900837 -0.0166663 0.134138
28 1 8.4285803 8.7883396 11.844 0.0204291 0.0384109 0.0842
29 1 4.84869 4.50734 0.872418 -0.0063649 0.0252283 0.0294815
30 1 6.0532298 10.2339001 7.94841 0.0458492 -0.034126 -0.0257253
31 1 11.5488005 0.600333 10.9193002 -0.0539799 0.0975506 0.141349
32 1 10.1082001 10.9502002 2.2972901 0.048533 -0.0852412 0.0064401
33 2 1.38883 7.4626198 11.3231001 5.1151905e-04 0.0172755 -0.0020415
34 2 11.9603996 0.607691 7.5085402 -0.0289565 -0.0290002 -0.0103496
35 2 5.7897101 6.2030201 6.63836 0.0430315 0.0028931 0.011075
36 2 11.7607003 6.2680202 4.9706002 0.0024583 -0.0461237 0.0119454
37 2 10.5484 0.519546 3.93039 -0.0270043 0.0099773 0.0959058
38 2 2.7474201 6.5810399 7.6940198 -0.0297892 0.10713 0.0739433
39 2 5.6471 12.9171 12.7390003 -0.0206864 -0.0313964 -0.0297793
40 2 1.57063 9.77913 8.1445904 -0.0125635 0.0090414 0.0030387
41 2 4.5341401 11.8535004 5.6777201 -0.0106837 -0.0158649 0.0064851
42 2 9.7107296 2.67818 12.3119002 0.0355163 -0.0562858 -0.0445534
43 2 0.7258981 12.2460003 12.9363004 0.0812696 0.276021 -0.0875799
44 2 7.8358202 11.3591004 10.5731001 -0.0267566 -0.0852004 0.0547392
45 2 12.7095003 2.33918 13.2559004 0.0230176 0.0449244 -0.050791
46 2 1.87193 4.6308098 13.1793003 0.0530573 0.018102 0.0258664
47 2 5.9758602 1.79889 1.6431201 -0.0371718 0.0972868 0.0020724
48 2 1.84406 1.29747 7.0514798 0.0467274 0.0133342 -0.104306
49 2 11.4257002 7.8386898 11.0054998 -0.0133926 3.0117199e-04 -0.0044868
50 2 5.1893702 2.68976 7.1521702 -0.0424698 -0.0556725 0.0145352
51 2 1.5578701 2.8991302 2.64011 0.0337999 -0.0476812 -0.0236203
52 2 7.3292499 10.0679998 4.7441001 -0.0130537 0.0050404 -0.0143147
53 2 0.857951 4.25594 8.8976098 0.0063173 -0.0043335 -0.0260978
54 2 4.4452701 6.3673401 3.7542601 0.0582642 0.0703029 -0.0289169
55 2 10.9223004 10.9548998 12.2407999 -0.0478809 0.022913 0.0011228
56 2 7.2755499 0.534874 5.5577798 -0.0109561 -9.5638905e-04 -0.0129443
57 2 2.29245 8.7308998 1.97779 0.0194137 0.0206864 0.0123243
58 2 6.9147702 4.2775502 9.2962504 0.0249482 0.0163361 0.0144827
59 2 6.6761298 4.1957502 3.5406201 -0.0872604 0.0599997 -0.0996401
60 2 7.8393202 7.4983101 1.22785 0.0064623 -0.0151346 0.0429672
61 2 0.904877 1.1616 9.8388005 0.0317119 -0.0106087 0.0573339
62 2 9.66432 13.5677004 1.05831 -0.014891 0.0245858 -0.0640079
63 2 10.6875 9.0868502 6.4549699 0.0100652 -0.0352882 0.0428562
64 2 12.0036001 9.0085096 3.5847199 0.0414618 0.0320155 -0.0266259
