ITEM: TIMESTEP
18000
ITEM: NUMBER OF ATOMS
64
ITEM: BOX BOUNDS pp pp pp
0.3687997 13.6471997
0.3687997 13.6471997
0.3687997 13.6471997
ITEM: ATOMS id type x y z fx fy fz
1 1 8.5684901 5.9393902 8.43328 -0.0730893 -0.0461342 0.0736989
2 1 4.30335 11.9849998 6.1912799 -0.0121425 0.0216224 0.0161897
3 1 2.3585301 13.1423998 3.1552301 0.0407776 0.0197607 0.0042544
4 1 5.0446301 8.6285601 7.4840899 0.0472231 -0.0276099 0.040261
5 1 11.8235998 6.9705702 2.2518499 0.0065881 0.0022609 0.0085186
6 1 4.71279 4.7020502 9.3849602 -0.0448032 0.0481676 -0.0760159
7 1 4.06317 8.49403 11.8193999 -0.0059832 0.0143254 -0.0374917
8 1 10.5572996 7.32159 5.94899 -0.0036339 0.0239014 -0.101272
9 1 2.763 4.4411102 12.4487 -0.0374395 0.0018999 0.0176833
10 1 12.7814999 2.4704199 2.59476 0.0236134 -0.026818 -0.0082812
11 1 7.41324 9.3416004 3.3341601 -0.112915 -0.10729 -0.0086548
12 1 3.46223 9.2588997 3.2216201 -0.0087005 0.0514367 0.0374262
13 1 10.3151999 11.0122995 3.77579 0.0916606 0.0070806 0.218011
14 1 1.85131 0.857615 8.5183201 0.0150021 0.0109812 0.0221911
15 1 11.5765 12.0763998 8.1833401 -0.0140665 0.03842 -0.039794
16 1 6.11445 12.8016997 2.8920902 0.0481412 0.0224166 0.0205231
17 1 4.0243301 3.0019801 4.81739 0.0344455 -0.0501132 0.006601
18 1 1.37957 9.6300001 9.1803303 0.0090138 0.264506 0.131001
19 1 12.0980997 7.3014102 10.8683004 -0.0026011 -0.0084242 0.001132
20 1 0.599082 7.1388202 7.2409601 -0.0159595 -0.203942 -0.145005
21 1 10.6610003 2.7045801 9.4143601 -0.0538356 -0.0309985 0.0437075
22 1 4.3706198 13.3219004 13.0642996 -0.017943 -0.0109436 -0.0075131
23 1 9.3186998 1.97506 3.0616701 -0.0636351 -0.0114043 0.012007
24 1 8.0577097 13.5304003 6.9643898 0.0092516 -0.0032389 -0.019769
25 1 9.8327999 4.8902102 13.3976002 -0.0893791 -0.028381 -0.019019
26 1 5.6022702 4.0959702 1.6410001 -0.0069813 -0.0230127 -0.0155586
27 1 2.2432201 5.8017602 3.1020899 0.0559874 0.0365565 -0.0305018
28 1 11.6643 1.04345 12.8949004 -0.0713615 -0.0218631 -0.0321679
29 1 6.7363401 2.3550701 11.0106001 0.0661009 -0.0258858 -0.057181
30 1 8.0958996 11.0600004 12.9151002 -0.0591561 -0.0163896 -0.0898757
31 1 12.3297005 2.88574 6.2006102 0.0108115 -0.0242335 0.0305728
32 1 11.927 10.4646998 0.834408 0.0578033 -0.0212009 -0.136484
33 2 0.974528 0.467829 11.5923004 0.0257792 0.0119244 -0.0238342
34 2 0.859006 12.7174998 6.09448 -0.0062927 -0.0172139 -0.0291782
35 2 7.5401402 6.81632 5.7094598 -0.0161994 0.025492 -0.0202928
36 2 2.3334 2.95446 2.04707 0.0656241 -0.0098385 -0.0196005
37 2 3.88764 1.71994 10.6711998 -0.0427051 0.0365596 -0.0284809
38 2 12.2854996 9.7473803 6.3476 9.6908007e-04 0.0191928 0.0165963
39 2 5.08638 7.85631 1.20482 0.0393624 -0.0382704 0.0255392
40 2 7.7230902 6.1326499 2.09727 0.0049752 0.0271781 0.0043605
41 2 11.4849005 5.2832599 8.0496397 0.0282172 0.0188503 -0.0025166
42 2 12.7072001 4.3249798 13.2381001 0.0595071 -0.0085968 0.0027568
43 2 2.3594601 9.51931 6.4632101 0.0182765 0.0161587 -0.0829482
44 2 8.9200096 8.4187803 10.1981001 0.0142853 0.0076468 0.0231763
45 2 2.2525001 10.9943 12.4272003 0.0018678 -0.0273464 0.0042314
46 2 7.4844799 3.5615001 5.0795202 -0.0921625 -0.0517636 0.0370547
47 2 6.35464 5.2319899 12.026 -0.0047279 0.0126387 0.0138367
48 2 8.4414397 10.1352997 7.41851 0.0022953 0.005965 -0.0192178
49 2 9.3171797 8.6887303 0.953564 0.036726 -0.0227803 0.0137492
50 2 5.27386 1.43318 7.57965 -0.0210325 0.0128165 0.0027531
51 2 9.8738404 4.7753401 3.89044 0.105378 0.0680722 -0.015892
52 2 0.51937 8.7194405 3.7907801 -0.0014308 -0.0140302 -0.0138826
53 2 2.0680499 7.04214 10.0789003 0.0124223 -0.127652 0.0240198
54 2 13.0411997 4.8722 4.1522298 -0.0371118 0.0720283 0.0611249
55 2 7.88404 12.9136 10.0024004 0.0048753 -0.0090837 0.0123781
56 2 2.44857 4.72263 6.6059199 -0.0425231 0.0040837 0.0412314
57 2 12.8345003 12.5036001 2.85616 -0.0569855 0.0171856 -6.3494902e-04
58 2 4.2742801 6.8810402 5.20403 -0.0033482 -0.0054262 -0.0422726
59 2 3.9949 10.8856002 9.3484497 0.0499679 0.0373092 0.0055599
60 2 7.5801001 1.91874 0.420653 0.0214838 -0.0129741 0.08896
61 2 13.5774002 3.3509901 9.6805897 0.0405385 0.0083153 0.0079382
62 2 12.3837004 10.6738997 10.6311999 -0.0411761 -0.0073883 0.0900946
63 2 9.3107901 12.6226998 1.67887 0.0126993 0.0745377 -0.0282168
64 2 1.5752701 7.4634199 0.5469131 -0.0023489 9.5624304e-04 -0.0075867
