ITEM: TIMESTEP
86000
ITEM: NUMBER OF ATOMS
64
ITEM: BOX BOUNDS pp pp pp
0.2100778 13.8059225
0.2100778 13.8059225
0.2100778 13.8059225
ITEM: ATOMS id type x y z fx fy fz
1 1 0.797222 5.2402301 10.0452003 1.90495e-04 -0.154672 0.0323366
2 1 12.8777 2.5581301 7.76681 -0.0064153 -0.0207874 -0.0029907
3 1 7.0018501 6.8050499 9.5265799 0.0091986 -0.0468528 0.0674316
4 1 2.27313 8.2459602 11.4796 -0.0078399 0.0445728 0.0083905
5 1 2.3858199 1.5210001 3.17658 0.0223623 0.0167373 0.0014247
6 1 9.3469496 9.9635402 7.0745401 -0.0966276 0.082513 -0.0318484
7 1 9.3498802 7.7737398 1.45028 -0.0537869 0.040441 0.0491855
8 1 4.7094403 11.3451996 9.3179903 0.0045675 0.0946738 -0.0354377
9 1 1.39046 4.6148901 13.6478997 0.0374298 0.0560434 0.07457
10 1 7.7256398 0.54784 2.7631901 -0.0140993 -0.0565481 0.0286102
11 1 10.6217003 11.3332005 13.4885998 -0.041229 0.0347215 -0.0239475
12 1 13.7013998 7.42694 3.1457901 0.0579162 -0.0318643 -0.0386566
13 1 1.12955 10.7054005 2.06515 0.0272886 0.0247928 -0.0748056
14 1 8.9685298 3.11431 11.9431 0.140711 0.200272 -0.0053054
15 1 10.9466 6.3966398 12.2645998 0.0423492 -0.0383383 -0.0611956
16 1 5.1583099 10.8275996 5.6809802 0.0795045 0.0681679 0.0204273
17 1 5.7950301 3.4022501 7.3581901 0.0501312 0.0251867 0.0048579
18 1 9.9607402 11.1639996 3.56754 0.169379 0.144469 -0.0422646
19 1 12.7376004 10.3717003 8.1829701 0.0759376 -0.0672419 -0.0208666
20 1 0.952893 12.2254 5.2940102 -0.0118557 0.0060525 0.0526595
21 1 2.53039 8.5104904 5.7550202 -0.079447 -0.0306078 0.0581866
22 1 9.1069899 1.11571 7.6093102 -0.0728253 0.0512779 0.004467
23 1 11.6843996 2.6924901 3.87355 0.0156136 -0.0032849 0.0334219
24 1 5.4449401 7.6296702 13.3817997 0.0057976 -0.0476538 0.0749147
25 1 11.0249996 12.7522002 10.1120997 -0.0292496 0.0473839 0.0768824
26 1 3.47684 2.9417602 11.0801001 0.0255779 -0.0596483 -0.0073162
27 1 3.93518 5.3520599 4.3208299 -0.0180849 -0.0069078 -0.0043855
28 1 6.9454002 13.4320002 12.4616003 0.0070922 -0.0353049 0.158113
29 1 7.9548102 5.0816798 3.7639001 0.0137468 -0.0086311 0.0118219
30 1 12.9565002 6.16751 6.4854698 -0.0403953 0.0672773 0.0315189
31 1 12.9214002 2.2885301 11.9790002 -0.0543313 -0.0495191 -0.0222833
32 1 3.34919 13.0665998 12.8658 -0.0838184 0.118302 -0.0167664
33 2 7.5236802 10.8802996 1.22512 0.0135499 0.0103591 -0.0049206
34 2 11.1046 4.15101 9.8727598 0.0166869 0.0058962 0.0036635
35 2 6.4291001 8.5107899 7.2631998 -0.0115991 0.0432321 -0.047944
36 2 12.2650995 9.4071703 5.1156998 0.0039651 0.014462 0.0161678
37 2 7.8187299 12.4189997 9.9784404 0.0390501 -0.0384141 -0.114294
38 2 7.6006499 12.6075001 5.76861 0.0329116 0.0023683 -0.0088528
39 2 13.3723002 10.8904 12.0197001 0.0068922 -0.0028809 -0.0051592
40 2 11.4832001 13.1276999 7.1968799 0.0723036 -0.0410135 -0.0535298
41 2 7.6842599 5.72503 12.5042 0.0031255 0.0309365 0.0055537
42 2 12.8927002 7.5862003 9.9994002 -0.035104 0.127541 0.027616
43 2 7.6226602 3.10463 1.39563 -0.0189781 0.0435226 -0.0515151
44 2 4.1117501 2.7790001 0.689852 -0.0089871 -0.0097886 -0.004851
45 2 8.0554199 9.3258 4.1770701 -0.159983 -0.160264 0.0572854
46 2 2.23421 6.2683902 7.8070102 0.0463989 0.0249941 -0.0636865
47 2 10.6857996 4.0474501 1.40354 -0.0030242 0.0312546 -0.0428497
48 2 5.1694498 2.5249701 4.40029 0.0137024 -0.0140611 -0.0128843
49 2 4.03193 5.8155599 10.5802002 0.0158031 0.0361398 0.0048429
50 2 10.7890997 7.6117101 7.8035202 -0.0266989 -0.0442788 0.0127203
51 2 5.3394199 9.1379805 10.9292002 0.0490491 -0.0921418 -0.0426081
52 2 1.9119102 11.9923 8.4141197 -0.0308586 8.4899903e-04 -0.0159627
53 2 6.5614 2.27368 10.9897004 -0.206496 0.0019763 -0.123769
54 2 1.0424401 4.0719199 5.6012998 0.0646766 -0.084785 -0.0538849
55 2 3.0876701 2.3881199 7.8063698 -0.0597054 -0.0114497 0.0175622
56 2 10.2592001 4.5917702 5.9832202 -0.0053539 -0.0344701 0.0319792
57 2 4.1127601 10.4070997 13.3621998 -0.004375 -0.082273 0.0695203
58 2 3.76265 9.7456703 3.4045701 -0.0093396 -0.0049136 -0.100887
59 2 4.7218199 12.9745998 2.0178399 0.0075431 0.0083962 0.0154383
60 2 2.4531901 7.7053299 1.07233 -0.0036743 -0.0046553 -0.0095989
61 2 9.9354696 0.845584 13.1253996 0.0741696 -0.172652 0.0828032
62 2 10.9943 6.6517501 3.80034 -0.0582229 -0.0100248 0.0026676
63 2 0.599745 0.56104 0.899892 -0.0033838 -0.0102806 -0.0215808
64 2 11.9545002 9.4293804 1.64799 0.0111675 -0.0286039 0.0298071
