ITEM: TIMESTEP
46000
ITEM: NUMBER OF ATOMS
64
ITEM: BOX BOUNDS pp pp pp
0.4404676 13.5755329
0.4404676 13.5755329
0.4404676 13.5755329
ITEM: ATOMS id type x y z fx fy fz
1 1 3.3390501 5.74784 9.29109 -0.0562486 0.0197745 0.0464502
2 1 10.8029003 0.989099 6.26298 -0.0087627 0.0174923 0.0180571
3 1 12.8795996 3.1339901 10.0395002 0.0334387 0.0591943 -0.0661185
4 1 10.1801004 4.97534 2.6162501 -0.0149114 -0.0182125 -0.001305
5 1 13.0609999 10.0155001 9.2381897 -0.0035287 -0.0211349 -0.0719169
6 1 11.1619997 6.5465799 10.5813999 0.107394 -0.100126 0.101173
7 1 1.08692 6.6872401 6.0995302 -0.0164103 -0.0030497 0.166816
8 1 1.83173 13.3128996 8.7318802 -0.0128926 0.0202348 0.0173492
9 1 6.4548302 1.02097 11.3743 -0.0572788 -0.0090424 0.0511995
10 1 2.05022 3.27267 13.5320997 -0.025826 0.014793 -0.0730145
11 1 8.7687702 6.9354602 6.90123 -0.0136683 -0.010151 -0.0293473
12 1 4.7771001 8.2348604 4.3506298 -0.0873793 0.0436153 -0.0348264
13 1 10.9590998 1.53827 12.4838 -0.15478 0.0129483 0.041993
14 1 4.5935002 2.3092799 7.1628099 -0.0761905 -0.0600289 0.0931865
15 1 7.6998201 11.6782999 7.7624102 -0.0282 0.0324135 0.0540164
16 1 7.7073698 3.3866401 8.4448004 0.043207 0.0495618 0.0094395
17 1 0.7937081 4.1402898 3.6410699 -0.0235866 -0.114153 -0.0270872
18 1 10.4703999 10.3427 11.7939997 -0.0116276 0.0746715 0.098455
19 1 3.50278 6.8338299 0.940799 0.0159494 0.005921 -0.0333049
20 1 0.786344 9.5912304 4.0385699 -0.0083 0.0532935 -0.0302435
21 1 7.6730199 6.6789398 10.5091 -0.0798178 0.0580291 -0.0244835
22 1 5.2776098 13.2672997 3.16575 2.0411899e-04 0.0258003 6.0531297e-04
23 1 9.2872696 0.539847 2.7723701 0.0552111 0.117813 0.0556892
24 1 3.3497801 12.2863999 12.1517 -0.0204355 -0.0224273 0.0031073
25 1 12.1971998 7.7432499 0.851585 0.039479 -0.0025 0.0253021
26 1 1.23999 13.4032002 4.41499 -0.0196352 -0.0033415 0.010359
27 1 6.5591002 3.67081 4.6672001 0.0149961 0.077619 -0.107896
28 1 8.93812 10.2833004 2.89589 -0.0087629 -0.187102 0.0526092
29 1 6.2239699 4.4014502 12.7193003 -0.0467601 -0.0031613 0.036587
30 1 5.2448602 8.4188805 7.8372898 0.0256829 0.0589691 0.0506915
31 1 13.0866003 12.3537998 0.966669 -0.0829124 -0.0938462 0.0698322
32 1 10.6713 10.2601004 6.1575899 0.0060921 -0.0522375 0.0053914
33 2 3.0553701 3.11059 10.5295 8.8962202e-04 -0.0725099 0.0132251
34 2 11.6657 12.8449002 10.1387997 -0.0362638 -0.0569278 -0.0706316
35 2 4.5274902 3.7485099 2.1466999 0.0361094 0.0412778 -0.0486049
36 2 9.3841896 3.67346 5.7562199 0.037438 0.0511779 -0.0059339
37 2 12.9712 12.0651999 6.8146801 0.0204982 -0.0127713 0.0024465
38 2 11.6695004 7.26861 7.8207002 0.0508578 0.0150244 -0.0844953
39 2 8.67838 0.833066 9.6200199 0.090474 -0.0261326 -0.0453537
40 2 4.4383502 11.7594996 9.2138701 0.0082363 -0.0027723 -0.0162145
41 2 2.9824902 10.3344002 6.17204 0.0040788 -0.0044896 0.002155
42 2 9.2701197 7.0356002 13.3500996 -4.71029e-04 -0.0084189 -0.0139976
43 2 8.3413201 11.9069996 0.616026 -0.0133711 0.040167 -0.0853052
44 2 4.0156798 8.3976698 11.0143995 0.0050743 -0.0040042 -0.0010988
45 2 12.2826004 2.09799 2.1998799 -0.0139567 -0.0402581 2.7300699e-04
46 2 0.611423 0.909208 11.8184004 0.149214 0.0353156 0.0136432
47 2 9.1195097 4.14708 11.4106999 0.0085113 -0.0268462 -0.0041451
48 2 3.36829 2.3599 4.4958501 -0.0247532 -0.0071128 0.0136628
49 2 1.1710401 5.6142302 11.4954005 0.0150715 0.0328835 -0.0040289
50 2 7.9285598 2.77367 1.43676 -0.0013608 0.0237941 -3.1150301e-04
51 2 2.37115 0.587568 1.5586601 0.0990438 0.0165372 0.0500547
52 2 7.4056101 9.57965 5.68327 0.0016779 -0.032403 -0.0274048
53 2 13.1868 3.35214 6.3677001 -0.0127136 -0.0206792 0.0511786
54 2 1.70505 6.7802801 3.3347199 0.0535139 0.107852 -0.102408
55 2 6.8536902 11.0544996 11.1660996 0.0059728 -0.0224695 -0.0266073
56 2 7.50176 1.22132 6.05514 -0.0083973 -0.0590844 0.0171352
57 2 3.89408 10.6175003 2.3935101 -0.0189508 -0.0134283 -0.002472
58 2 5.3306699 5.3462701 7.2298699 0.0679775 -0.01037 -0.0574224
59 2 7.0843701 6.75662 3.53177 0.0884495 -0.067231 -0.0057489
60 2 6.3868799 8.53477 0.944938 -0.0130534 0.0113336 -0.0078195
61 2 0.534133 10.2272997 12.0972996 0.0174512 -0.0180105 0.0310788
62 2 12.0248003 4.32269 13.0637999 -0.0191938 0.0228173 0.0159128
63 2 9.6370402 8.7505303 9.59235 -0.0846503 0.0618101 -0.111335
64 2 11.3042002 7.6307802 4.1530199 0.0028575 0.0042989 0.0018074
