ITEM: TIMESTEP
56000
ITEM: NUMBER OF ATOMS
64
ITEM: BOX BOUNDS pp pp pp
0.3408906 13.6751099
0.3408906 13.6751099
0.3408906 13.6751099
ITEM: ATOMS id type x y z fx fy fz
1 1 13.4724999 5.7016201 11.3622999 -0.005193 -0.035695 -0.0018367
2 1 0.383938 2.9387802 7.2892199 -0.0145196 -0.0461744 -0.0250269
3 1 9.4562502 5.4818702 10.4505997 0.0526986 0.0553525 0.0229868
4 1 10.3780003 7.2108498 3.6385801 0.0310434 -0.05032 -0.0279876
5 1 5.0195198 10.7294998 9.7277003 -0.0713201 -5.9267402e-04 -0.0161886
6 1 13.5241003 11.3077002 7.0079598 -0.0823731 0.199915 -0.0310561
7 1 11.8454 6.2763901 6.8906002 0.0090638 0.0075498 0.0118718
8 1 13.0935001 1.1924599 11.1036997 0.0774839 0.0837887 -0.0854751
9 1 7.8741598 10.5670004 0.630549 0.0335392 -0.0676625 -0.094939
10 1 3.97998 0.709579 0.717903 0.0057587 0.0644981 0.0151118
11 1 9.6853705 2.80492 7.2007399 0.0198634 0.0150637 -0.0431462
12 1 3.99999 10.6925001 1.68221 -0.0027257 -0.0776484 0.0244914
13 1 11.0183001 2.26017 0.724163 0.0249024 0.094159 -0.0846412
14 1 5.00067 2.92234 9.0764399 -0.126859 -0.012513 -0.0143348
15 1 8.7054701 11.3036003 7.7960501 0.0226983 0.0135237 -0.041968
16 1 9.6353398 0.951797 10.4254999 -0.0736829 -0.0151047 0.0401133
17 1 1.1231101 3.95588 3.6399 0.0225484 -0.0296335 0.0583549
18 1 7.1923199 5.9779202 1.34424 -0.0185456 0.0250412 -0.0210898
19 1 6.1904302 6.4430399 10.5606003 -0.10928 0.0294503 0.0037173
20 1 0.83576 7.79142 3.3059101 -0.0158971 -0.0440016 0.0173774
21 1 7.69272 6.2652002 6.5139699 -0.0037675 -0.0075037 0.0062907
22 1 5.9959502 0.740772 5.25524 -0.0110147 0.0170443 -0.0078152
23 1 10.6448002 1.12445 4.10848 0.0897226 0.163007 -0.005734
24 1 1.34239 8.9958 12.6365004 -0.0211039 0.0285848 0.0176811
25 1 11.7249003 8.6514502 9.6966105 0.0375898 -0.0199231 0.0194142
26 1 2.2813599 13.2372999 4.151 -0.0150032 0.0086791 2.4321199e-04
27 1 3.28144 6.1568499 0.82012 0.0064127 -0.0285562 -8.4213801e-04
28 1 10.6244002 11.1634998 3.1276 0.0210749 -0.113431 -0.0149355
29 1 7.5442601 2.0632701 1.36945 -0.0971263 -0.115193 0.127568
30 1 2.61571 6.5721898 6.5619998 -0.0838796 -0.0965336 0.0789904
31 1 12.8302002 12.0240002 13.4059 -3.1909099e-04 -0.0701465 0.0679524
32 1 4.8255 8.3984299 4.7848602 0.0924829 0.0614228 -0.0822039
33 2 5.11339 3.5613699 13.3808003 0.0067775 0.0236069 -0.0193872
34 2 11.6036997 4.2147002 9.17904 0.105405 -0.0688318 -0.0350884
35 2 1.67282 11.2573004 10.3442001 -0.0100606 0.0019529 0.0072821
36 2 11.4445 4.2617002 4.6322799 0.020943 -0.0188824 0.0242161
37 2 8.6816597 12.6660996 5.0223098 -0.0629152 -0.0763434 0.0490628
38 2 11.7915001 0.460584 8.3674498 0.0208999 0.0361558 -0.0632356
39 2 8.7011605 8.1802902 11.5496998 2.849e-04 0.0142444 0.0322997
40 2 2.4049699 13.6591997 8.0581303 -0.0089967 0.0110837 -0.007722
41 2 2.8618802 1.72629 11.4635 -0.010303 0.014621 -0.0375182
42 2 1.41839 9.0092697 7.8452002 0.0714356 -0.158262 0.0765165
43 2 9.9766798 12.8275996 0.53504 -0.0389843 -0.0088123 -4.80408e-04
44 2 7.7901001 3.2819901 9.4047299 0.0499929 0.0025817 0.0203691
45 2 13.2035999 1.02642 2.19311 0.0518099 -0.0240654 0.0380322
46 2 13.1451998 4.6177302 1.14308 0.040858 -0.0168406 -0.0214287
47 2 8.3729897 3.72717 12.6106005 0.0350818 0.0559118 -0.0814172
48 2 4.0605102 3.12168 3.0307701 0.0079307 -0.0187826 0.0014926
49 2 3.0432999 7.1405802 11.0627003 0.0248735 -0.0228306 -0.0210035
50 2 9.3920097 4.2786598 2.3333299 0.0568681 0.0079342 -0.0195309
51 2 11.1195002 8.8018303 0.891998 0.0068711 0.0555731 0.0218608
52 2 8.0817604 8.9653502 3.26125 -0.0481163 0.0302501 0.0030229
53 2 3.5969401 3.6605799 6.2483001 -0.0043511 -0.019845 -2.17505e-05
54 2 2.0875001 4.5743599 9.0590801 0.0223209 0.0227861 0.0311643
55 2 7.7716799 11.1358004 10.5740996 0.0515664 0.0209207 0.0702641
56 2 7.41642 3.76665 4.55439 -0.03215 -0.0246135 0.0382433
57 2 0.879315 10.6091995 2.5983801 -0.0046044 0.069888 -0.020395
58 2 5.0591502 8.1640196 8.0891199 -0.0016242 -0.0494889 -0.0067283
59 2 5.5938101 10.8149004 6.4714599 0.0205352 0.0482863 0.0011667
60 2 6.66817 12.2929001 2.5666101 -0.0519247 0.0660194 0.0453258
61 2 11.3633003 11.4804001 10.3225002 -0.0125327 0.0340953 0.0459126
62 2 10.8350001 5.9229798 13.1983996 -0.0658973 0.0016464 -0.048221
63 2 9.1052399 8.3199902 8.3348599 -0.0211979 -0.0255888 -0.017873
64 2 11.8739004 9.2166205 5.6041999 -0.0150677 -0.0208188 -0.0191244
