ITEM: TIMESTEP
64000
ITEM: NUMBER OF ATOMS
64
ITEM: BOX BOUNDS pp pp pp
0.4299937 13.5860062
0.4299937 13.5860062
0.4299937 13.5860062
ITEM: ATOMS id type x y z fx fy fz
1 1 1.44172 4.0837402 9.6966801 0.115928 -0.0423462 -0.0522063
2 1 3.2233701 12.4488001 7.29181 0.0493172 0.102677 0.0297678
3 1 12.0860004 5.9611102 11.1486998 -0.0492752 -0.0844952 0.120563
4 1 11.8116999 8.9922104 13.2117005 -0.0411265 -0.184748 0.037797
5 1 1.48944 12.9946004 10.9188004 -0.0019775 0.0045436 -0.0022902
6 1 12.8361998 12.0334997 6.2357602 -0.0284924 0.0213915 0.0021834
7 1 10.3829003 5.3947601 7.6496802 -0.0296804 -0.0209713 -0.024517
8 1 11.4573002 2.4080601 9.4643603 -0.0256554 -0.0743303 0.005663
9 1 7.2426801 8.3857803 13.1134005 -0.104198 -0.0158349 0.107712
10 1 5.5239001 11.6152001 11.2967997 0.0449198 0.0112577 -0.0468083
11 1 6.9854898 13.4358998 6.10987 -0.0095542 0.0232177 0.0070485
12 1 3.9307002 7.1393399 3.2414801 0.0129706 -0.0025709 0.0368292
13 1 1.02461 1.17521 1.87309 0.0753909 -0.0490458 -0.0253739
14 1 5.43363 2.84759 9.8436804 -0.0734697 -0.0064458 0.0402508
15 1 8.7006903 8.5536003 8.6093397 -0.0410773 0.0205774 -0.0079377
16 1 8.8755398 3.6105199 11.7961998 -0.0649581 -0.026681 -0.086701
17 1 0.728164 4.8195601 1.54421 0.0209709 0.0230289 0.0105129
18 1 10.1113005 4.9681302 1.5963201 0.0977523 -0.0476394 -0.0012703
19 1 5.2126999 6.4730602 10.4097004 -0.0174164 0.0852889 -0.111043
20 1 12.5277996 7.9454198 4.1244302 0.0014566 -0.0046009 0.0013163
21 1 7.0657902 5.5162401 5.8782402 -0.0214031 0.0183704 0.0091808
22 1 3.0716801 9.2623396 8.84865 0.0434009 0.0078113 -4.9972596e-04
23 1 12.8981 3.3736701 5.72367 0.0874534 0.0513944 -0.0226029
24 1 1.85262 10.4759999 2.8460702 0.0131007 0.0265306 0.0018305
25 1 10.896 12.0706997 12.0612001 -0.155135 0.161263 -0.138805
26 1 5.14218 1.06927 2.8971 -0.0301843 -0.0260923 -0.0262853
27 1 4.7280898 5.00211 13.4161997 -0.007176 -0.0435254 0.0738412
28 1 7.1630902 9.1943197 4.51366 0.0696517 0.0326625 -0.0329071
29 1 9.1144304 1.33934 1.54259 -0.0920949 -0.0256105 0.0430129
30 1 13.4777003 7.05586 8.0310097 0.0295615 0.0473455 -0.126069
31 1 11.1976996 11.6578999 2.7781799 0.0314847 0.005126 0.0143882
32 1 3.8052101 2.93786 6.08147 -0.0155406 0.0152643 -0.0099418
33 2 3.2131 5.7330799 7.6578498 0.0135776 0.0018166 0.0186519
34 2 0.974238 1.5022 7.9220902 0.0070206 -0.0137425 0.0024216
35 2 3.57424 11.2693005 13.4612999 -0.0403394 0.0082028 0.0370244
36 2 2.10375 10.0997 6.0208602 -0.0735168 -0.0827172 -0.0217744
37 2 6.4295001 10.6868 7.4345298 0.0178903 0.0088561 0.0372275
38 2 10.1975002 12.0709 8.5681401 0.0131873 0.0238217 0.121852
39 2 9.0602703 9.7894802 11.4506998 0.042494 0.0427708 -0.0502531
40 2 13.0705996 10.8891002 9.1492004 0.0575393 0.0218205 -4.7130199e-04
41 2 2.57918 2.6111601 11.9908 0.0239736 -0.0121514 0.0451473
42 2 11.4565001 8.3779097 9.8312702 -0.0333422 0.0603989 -0.0169764
43 2 11.7327004 1.8103 3.372 -0.046624 4.58283e-04 0.0529536
44 2 7.7837401 5.4569502 9.2163096 0.0034033 5.9274998e-04 0.0046706
45 2 3.7441399 3.8655602 2.82018 -0.0143996 -0.0167039 0.0287291
46 2 1.9034802 7.1413102 10.5365 0.0016713 -0.038499 0.0598541
47 2 11.7082997 1.75655 13.4962998 0.0251717 0.0207487 -0.114971
48 2 6.0206099 2.3057799 13.0025997 0.0188017 -0.0187639 0.0041713
49 2 3.50453 7.89952 13.4778996 0.0044822 8.7103901e-04 -0.0184783
50 2 10.8893996 5.38094 4.3737302 0.0077253 -0.0157607 0.0698501
51 2 8.2899799 10.9714004 2.3116601 -0.0135321 0.0100634 -0.0266821
52 2 7.3632798 5.52143 2.2758999 -0.102313 0.0465926 -0.0236612
53 2 7.0682998 3.095 4.0440302 0.0093003 -0.0586774 0.0316196
54 2 1.76165 5.5261002 4.75349 -0.0263836 0.0078229 -9.5044899e-04
55 2 7.94485 2.2820201 8.5675097 0.086559 -0.0230057 -0.0431874
56 2 10.9558002 1.44919 6.5568199 -0.0672715 -0.0550952 0.0232841
57 2 13.2347002 11.4572001 13.3480997 0.220047 0.0496538 0.114752
58 2 5.0032301 8.2455197 6.1322999 -0.082121 -0.0727106 0.0440157
59 2 2.0655701 0.457161 4.65767 0.0020773 0.0021598 0.0077202
60 2 4.66606 11.2558003 4.8399702 0.0374947 0.0351379 -0.0571098
61 2 8.5516196 0.678545 11.4663 -0.0226404 -0.0238642 -0.004581
62 2 9.24405 6.4603501 12.2831001 0.0428365 0.0327966 -0.029605
63 2 9.5813599 7.7137699 2.4454701 0.0109423 0.0956764 0.0063496
64 2 9.39044 11.6110001 5.8270402 -0.0086549 -0.0413827 -0.128233
