ITEM: TIMESTEP
34000
ITEM: NUMBER OF ATOMS
64
ITEM: BOX BOUNDS pp pp pp
0.4808087 13.5351916
0.4808087 13.5351916
0.4808087 13.5351916
ITEM: ATOMS id type x y z fx fy fz
1 1 8.0131502 5.69698 10.0737 0.0631657 0.0783191 0.0682326
2 1 0.830608 0.951981 4.9495202 0.0107883 0.0896618 -0.102052
3 1 12.3282004 5.1479802 12.2021999 -0.0200618 -0.0049913 0.0542556
4 1 8.21169 1.12461 3.40149 0.109878 0.0010095 -0.0134023
5 1 11.1290999 8.0980797 5.1110401 4.1996598e-04 -0.0135163 -0.012487
6 1 0.945423 2.66501 7.9095102 0.0037163 0.110902 0.097923
7 1 3.80314 5.4289398 9.8948098 -0.0200396 0.010433 0.0569582
8 1 13.1428003 11.0277004 6.36094 -0.0260358 -0.111331 0.0382952
9 1 2.2610099 1.84866 13.2987003 0.0861759 -0.0014789 0.0268479
10 1 0.6216941 4.3585801 2.8436 -0.0979039 -0.0039203 0.0228154
11 1 7.0865798 7.51895 4.5586 0.0472075 0.04478 0.0040402
12 1 3.88495 7.0288401 3.2745199 -0.109024 0.008119 -0.0083214
13 1 4.11303 10.9118996 3.8927 0.0586852 0.0536664 -0.0764976
14 1 3.05755 12.0527 9.7378598 -0.0174134 -0.0206862 -0.0018265
15 1 10.2322998 13.4247999 6.84896 0.0406771 0.0139643 -0.0279247
16 1 7.5529199 1.10425 9.7193299 0.0108943 -0.0348377 0.0139673
17 1 4.8123598 4.6592303 6.6491099 0.0516699 0.062658 -0.118153
18 1 10.6952 8.3380804 9.1360302 -0.0555048 -0.0190276 -0.0028729
19 1 0.982685 8.7301598 11.8017998 -0.0067384 -0.0248878 0.0541616
20 1 1.5885 7.6259499 6.9226198 0.0307867 -0.0328031 0.0161291
21 1 6.68291 9.5634098 8.7656203 0.0386731 0.0223466 -0.0393773
22 1 5.2802601 13.1064997 1.24343 0.018979 -0.0238536 -0.0683659
23 1 9.1189098 10.6514998 2.4749201 -0.0247119 0.0015114 0.0071157
24 1 4.4712401 8.1443501 12.5867996 -0.062876 -0.0317947 -0.110235
25 1 9.0318003 7.2037501 1.26054 0.0496583 0.0121792 -0.0346886
26 1 11.9765998 1.4393 1.35132 -0.0682723 -0.0226971 0.0260503
27 1 10.099 4.5907603 6.7369299 -0.0178826 0.002857 0.0172547
28 1 8.7186804 10.6077996 11.6469002 -0.132395 0.0949027 0.0015146
29 1 6.5086298 4.8382201 1.9567 -0.305364 0.0953961 0.067956
30 1 6.42518 12.5752001 6.1403599 -0.0277731 -0.0458613 0.0440893
31 1 11.092 13.4145002 11.0059004 0.0324173 -0.0515404 -0.0467521
32 1 12.9024 10.1959 1.98778 -0.0093876 -0.0756663 0.132843
33 2 13.4352999 9.2768803 9.0606203 0.0327246 0.0767081 -0.059525
34 2 13.073 13.0267 8.6805201 -0.0050214 -0.0382936 0.0065332
35 2 8.0959501 7.2732501 7.30473 0.0346253 -0.0317277 0.0475706
36 2 11.1442003 2.69364 4.54179 0.0075466 -0.0194573 -0.0156543
37 2 11.2437 12.5 3.61904 0.0165584 0.0027032 0.0274311
38 2 3.94172 8.9804602 9.5435801 -0.0749575 -0.0209179 0.0185099
39 2 5.95463 12.0267 11.5176001 0.0030584 -0.0194844 -0.0243191
40 2 3.09041 11.8228998 6.6251703 -0.0073555 0.0135843 0.0064238
41 2 1.85142 9.2312203 4.37427 -0.135784 -0.0321232 -0.0420899
42 2 10.1157999 3.09974 10.9559002 -0.0304281 0.0662879 -0.0081021
43 2 1.79729 12.4035998 2.7124901 0.0070342 0.0109279 -0.0566244
44 2 9.43186 11.2947998 8.7821503 -0.0039951 -0.0078342 0.0144826
45 2 8.8231402 3.5360799 1.72592 0.289648 -0.113353 -0.0378367
46 2 2.5485401 5.03723 12.6578999 -0.0180221 0.0040779 0.0160645
47 2 5.7414699 3.8819002 12.3401003 -0.0048007 -0.0040987 -0.0464086
48 2 3.5838499 2.0344 6.5121598 -0.0162756 -0.062895 -0.0048729
49 2 10.8493004 9.0436296 12.4462004 0.139495 -0.107232 0.0509318
50 2 4.4039302 1.6254 10.4511996 -0.0135811 0.0205271 -0.0012226
51 2 3.4300499 3.97335 2.7167399 0.114383 -0.0288948 -0.0328093
52 2 4.3881602 8.9131604 5.94413 0.07868 -0.0825105 0.0892251
53 2 13.2802 5.82334 9.5146704 0.0280723 0.0181282 -0.0543934
54 2 2.16364 5.0777402 5.3886399 -0.0337067 -5.9345102e-04 0.0070496
55 2 12.9174996 11.5678997 12.6036997 -0.0296282 0.086802 -0.108987
56 2 7.8200202 2.1047499 6.3818202 0.0077728 0.0557614 -0.0027767
57 2 2.90046 11.2461996 12.7678004 0.0454418 -0.0126487 0.0118127
58 2 6.46838 3.71712 8.8233805 -0.0529474 -0.0649226 -0.005762
59 2 5.36692 1.49506 3.7823701 -0.0600202 0.0257497 0.0577535
60 2 6.1743999 8.7577105 1.63841 0.102746 0.0336651 0.136734
61 2 13.5068999 2.50768 11.1479998 -0.0410373 1.52385e-04 -0.0592098
62 2 8.9438 0.789256 13.1357002 -0.0168518 -0.0314938 0.0102946
63 2 8.8413496 10.0347004 5.7449398 -0.0175904 0.0298287 -0.0087237
64 2 13.5156002 6.9963498 1.4932 0.0018082 0.0497636 -0.0189928
