ITEM: TIMESTEP
66000
ITEM: NUMBER OF ATOMS
64
ITEM: BOX BOUNDS pp pp pp
0.3885157 13.6274843
0.3885157 13.6274843
0.3885157 13.6274843
ITEM: ATOMS id type x y z fx fy fz
1 1 13.6248999 4.0987501 8.3332701 0.093237 -0.0325112 0.069227
2 1 2.91424 11.5186997 6.6227002 0.0530037 0.049942 -0.043095
3 1 12.5429001 4.8894702 12.4441996 0.0450672 -0.016517 -0.0599346
4 1 13.3746996 9.9174806 12.8437996 -0.0157261 -0.0044228 -0.0336326
5 1 0.824428 0.91903 11.7133999 0.0677135 0.0156136 -0.0080783
6 1 12.6669998 10.9305 7.4633699 -0.0658124 -0.00767 -0.0850054
7 1 10.5958004 4.5327301 6.7054 -0.0957886 0.0222077 -0.0290806
8 1 10.3436003 1.70664 9.0071602 0.0097092 -0.0420417 0.033747
9 1 8.37251 7.4287801 12.4989004 0.0012788 0.0256649 -0.0103811
10 1 4.45682 12.6447001 12.0951996 0.0077087 -0.0336996 0.0282271
11 1 6.5053501 13.0734997 7.0783601 0.0098757 0.0186724 0.0067539
12 1 3.15342 7.14434 4.5376301 0.0378755 -0.121993 -0.0506607
13 1 1.88401 3.4870801 1.68325 -0.0045613 -0.0682067 0.0285191
14 1 4.2420001 1.87521 9.3819399 -0.0215236 0.0328729 -0.0253489
15 1 8.3151999 9.9338102 7.2295299 -0.0818084 -0.128006 -0.0804927
16 1 8.6737004 2.737 12.4378996 -0.0294286 0.0042374 -0.0059626
17 1 1.8109501 6.9520702 1.10123 -0.171725 -0.150214 0.083325
18 1 10.8017998 5.8371902 3.2857299 -0.0513324 -0.0149858 0.0320197
19 1 4.3577099 6.3123498 11.4056997 -0.0294352 0.0076943 0.0084718
20 1 12.2563 9.1206198 3.1016901 0.0381364 0.0226254 0.0219592
21 1 6.1391001 6.98596 6.56952 0.0235047 -0.0123661 0.0231525
22 1 2.21734 9.4745598 9.3536797 0.0034109 0.0436485 0.119879
23 1 13.1969004 2.4964099 4.8007202 0.0101032 0.0274083 -0.0736732
24 1 2.7255199 10.3275995 2.7815299 0.0093105 0.048076 -0.0286288
25 1 10.1258001 11.9463998 11.6412001 0.0114586 -0.0217709 0.06878
26 1 5.8032999 12.4952002 2.88723 0.0175989 0.0015348 -0.0156593
27 1 7.0177898 3.86198 2.35711 -0.0116665 0.0392517 -0.0084297
28 1 8.7468395 10.3151999 3.5081201 -0.0848895 0.0150108 -0.0322473
29 1 9.24438 1.68725 4.3158202 0.0284141 -0.0256976 0.0135355
30 1 13.0319996 7.3893199 6.94278 0.0062014 -0.0071895 -0.0205137
31 1 12.1215 13.1567001 1.68625 0.0071424 0.0403769 -0.0504855
32 1 3.6791201 1.47383 5.0384998 -0.0188536 0.0488307 -0.004477
33 2 3.6494 4.2739301 6.7192102 -0.0136947 -0.0034735 0.034106
34 2 1.2389 1.34136 7.2347398 0.0773972 -0.0162444 0.0275944
35 2 3.4893701 8.8401604 13.4280997 0.15814 0.204167 -0.117194
36 2 1.48918 9.3055897 5.2329402 -0.121831 0.0650107 0.0493776
37 2 5.33388 10.0901003 8.6359701 -6.6312599e-04 0.006522 -0.0137799
38 2 9.7979403 11.6527996 8.7817898 0.130157 0.178157 -0.0306073
39 2 8.3414002 9.7020397 10.4097004 -0.0518082 -0.060221 0.0439566
40 2 12.6254998 13.0249004 9.40625 0.0012688 0.0286146 0.0547058
41 2 2.42341 3.5090499 11.8758002 0.0058533 0.0262369 -0.0175806
42 2 10.7022 7.3596602 9.2534704 0.0038068 -0.0020884 -0.0022985
43 2 11.7317 3.0601101 1.53589 0.0527345 -0.0366073 0.0902856
44 2 7.0272002 5.83389 9.9844398 0.0182998 0.0033219 -0.0112729
45 2 4.2487898 4.3921499 3.6772499 -4.06563e-04 -0.0060432 -0.0336903
46 2 0.896963 7.0873499 10.4492998 -0.020109 -0.0493121 0.0216848
47 2 11.2705002 1.4049 12.2481003 -0.0181674 -0.0035358 -0.030863
48 2 8.9514704 12.9646998 1.13679 0.0229421 0.0461587 0.0277535
49 2 5.91495 6.8341198 0.960707 -0.0121118 -0.023568 0.0103083
50 2 9.8799896 7.5813999 6.01017 0.0198941 -0.010618 -0.0148426
51 2 7.2312198 10.5626002 13.5658999 -0.0991509 -0.0128272 -0.0170884
52 2 7.64674 7.6873102 3.6421399 -0.0372035 -0.0881852 0.005035
53 2 7.7762199 4.7369499 5.26266 0.0168192 5.6276403e-04 -0.0312072
54 2 13.5485001 5.4474902 4.2793899 0.0551968 0.0275995 0.012194
55 2 7.8894802 2.895 7.7941699 -0.0251594 -0.0121056 0.0031897
56 2 11.6457005 0.5874 6.3066902 -0.0857866 -0.0342519 0.0494166
57 2 1.61745 12.2981005 0.685208 0.0409977 0.0049865 0.0173245
58 2 3.1847899 7.5671702 7.46138 0.0193317 -0.0529624 -0.0104981
59 2 0.819795 12.6887999 4.25207 0.0423585 -0.0022529 0.003345
60 2 5.046 9.6181803 5.2335901 0.0022986 0.0125773 -0.0111145
61 2 7.5176401 13.3277998 10.7005997 -0.0095015 0.0122312 -0.005788
62 2 9.9938002 5.2683802 0.568501 -0.108933 0.028335 -0.0448469
63 2 10.0479002 9.7665301 0.804085 0.0982533 -0.0257642 -0.0048097
64 2 11.0497999 11.8302002 3.98324 0.0405771 0.0192042 0.075395
