ITEM: TIMESTEP
100000
ITEM: NUMBER OF ATOMS
64
ITEM: BOX BOUNDS pp pp pp
0.3518502 13.6641503
0.3518502 13.6641503
0.3518502 13.6641503
ITEM: ATOMS id type x y z fx fy fz
1 1 4.3673201 8.9839698 8.5676604 0.0190394 0.0018671 0.0580453
2 1 12.5300999 13.3318005 6.2367401 -0.0930341 0.0739795 -0.0378781
3 1 10.7841997 4.8187499 10.5119 0.018326 -0.0102459 -0.0477534
4 1 13.2159996 12.0389004 0.691208 -0.0116388 0.091192 -0.0270553
5 1 0.478234 2.2499199 3.1080999 -0.0634414 0.006009 -0.140224
6 1 8.4718304 9.6698799 9.3304701 -0.0891784 -0.0299224 -0.0604917
7 1 8.0584698 2.4725499 5.3030601 0.0237064 0.0876691 -0.105555
8 1 1.91437 8.3300696 12.3022003 -0.0112195 0.0401568 0.0098673
9 1 3.1668999 4.9572502 11.7356997 0.0592019 0.0258383 0.028257
10 1 6.6350003 10.5550003 5.86296 -0.0166341 -0.0069337 0.0103862
11 1 7.5249901 8.9797402 13.4306002 -0.0055496 0.0723148 -0.0297619
12 1 1.19313 6.90337 3.2734599 0.0142519 -0.0679141 -0.0073415
13 1 4.21947 2.7340701 5.8452802 0.059729 0.0012422 0.018669
14 1 12.7931996 13.2405996 9.98518 -0.0251007 6.0224299e-04 0.035503
15 1 11.3051005 7.4959502 1.3987401 0.138423 0.0175564 -0.0755802
16 1 11.3740997 10.4263001 3.7428401 0.0684235 -0.0056321 -0.0248366
17 1 6.8228598 5.31041 9.9507704 0.10958 -0.0246066 0.117815
18 1 6.5295501 6.6754098 6.0269799 0.0123833 -7.1111698e-04 0.0057593
19 1 11.3916998 9.9498502 11.3544998 0.0251692 -0.0165651 0.0319893
20 1 1.98896 11.4680004 6.9867102 0.0626072 -0.0135749 0.0927156
21 1 2.78754 10.0937996 3.87299 0.0317017 0.0467396 0.0120575
22 1 8.4756499 12.3481999 3.2521901 0.0421055 0.127424 -0.0147844
23 1 10.7746001 2.2702799 13.5307999 -0.0613742 -0.0136084 0.0201799
24 1 8.6645499 5.4506102 13.3816996 -0.0431176 -0.0207722 -0.0524728
25 1 2.7820301 1.4255001 11.6338997 0.0688513 -0.0741432 -0.0579469
26 1 7.2316098 13.4547997 12.6731997 -0.0304439 0.0222155 -0.015514
27 1 5.39781 4.9681802 2.8216501 0.0025633 0.010247 -0.02549
28 1 4.1034999 1.54452 1.7674001 0.0121374 -0.011396 0.0229711
29 1 11.4274998 4.98107 5.82861 -0.0074846 -0.0502806 0.0017785
30 1 12.8907004 8.2902203 6.3034601 0.050922 0.0351326 0.0220369
31 1 0.976536 4.5406399 8.9082098 -0.0140275 -0.0055611 -0.0362477
32 1 7.8087001 13.6030998 7.8986002 0.0022656 -0.0681031 0.107684
33 2 6.3965202 10.5256005 2.6956301 -0.0101779 -0.054911 0.0077066
34 2 4.5968399 5.74929 8.3553105 -0.138055 0.0307259 -0.0777372
35 2 5.5744 11.8925 9.43153 0.0105321 -0.0085905 -0.0042529
36 2 10.0271997 12.5974999 13.2023001 0.0703587 -0.0150474 0.118715
37 2 13.3957005 2.1709499 12.2818003 -0.0188195 0.0149126 -0.0114252
38 2 1.3355401 2.80601 5.7154699 -0.0499153 0.0456833 0.0907302
39 2 10.5038996 1.39784 3.3030901 0.0172024 -0.005177 0.0106736
40 2 9.9250698 10.3199997 6.4064298 -0.0266193 0.0506769 -0.0101036
41 2 9.20401 7.3997002 11.2117996 0.0057776 0.0181556 -0.0115248
42 2 13.4533997 5.6103101 12.0193005 -0.0066631 0.0072164 0.001251
43 2 8.1553898 3.30649 1.86142 -0.025804 -0.0792101 0.0690165
44 2 2.2730501 11.6086998 10.6675997 -0.0100666 -0.0011424 -0.0041769
45 2 8.8160897 5.36478 7.6794501 -0.0087023 -0.0630435 -0.0155389
46 2 1.58995 1.44364 8.4574805 0.0201068 -0.0164302 0.023714
47 2 5.3478599 8.1664801 11.5342999 -0.0260636 -0.0211727 -0.0287542
48 2 5.7642203 13.6673002 4.4773503 0.0082741 -0.0098535 -0.0038238
49 2 0.718271 9.5312796 1.84205 -0.0231202 -0.0645346 -0.0087577
50 2 10.5128002 7.8208599 8.0002604 0.0271445 -0.0219037 0.0555548
51 2 5.7767301 3.3287599 12.5892 0.0013151 -0.0037494 0.0016859
52 2 1.3613 8.1655397 9.1209402 -0.0034509 -0.0057968 -0.003752
53 2 4.86305 2.58581 9.0207796 0.0024826 -0.0088088 0.0131153
54 2 11.6431999 4.3648 2.2839301 -2.6671901e-04 0.0363757 0.0086962
55 2 3.62339 7.7610603 5.9756398 -0.0327019 0.003097 -0.055327
56 2 11.0122004 2.01162 8.2013903 0.0054918 0.0069233 -0.0062654
57 2 1.26069 12.8269997 3.9440502 0.0112196 -0.0418213 0.0025608
58 2 4.4776402 8.1710396 2.4987099 0.0023713 -0.0946943 -0.0335803
59 2 9.3561201 12.2413998 10.3982 -0.0050585 0.0375078 -0.0875273
60 2 3.8655802 11.4081001 1.2927801 -0.0508553 0.0315914 -0.0363944
61 2 8.9724998 2.2576499 10.7549 -0.0167355 0.00314 0.0186895
62 2 10.5137997 7.46558 4.2873302 0.165176 0.0137474 0.209553
63 2 2.2698 4.4017501 1.60293 0.0120069 -0.0054484 -0.0083869
64 2 8.6153603 7.3934202 2.28829 -0.255527 -0.0186341 -0.0611154
