ITEM: TIMESTEP
42000
ITEM: NUMBER OF ATOMS
64
ITEM: BOX BOUNDS pp pp pp
0.3260701 13.68993
0.3260701 13.68993
0.3260701 13.68993
ITEM: ATOMS id type x y z fx fy fz
1 1 5.2674399 5.4854298 10.8140002 0.0235868 0.0348735 0.0023164
2 1 12.3065004 1.88342 6.4240799 0.0399618 0.0034374 0.0033622
3 1 12.5381003 3.0169001 10.4509001 -0.0807883 0.0378319 0.0243976
4 1 10.2327995 4.2302199 3.0803499 0.0031086 -0.0041074 0.0068487
5 1 2.2409301 7.85145 9.8318701 0.0353514 -0.0667945 -0.00478
6 1 10.9422998 6.0862699 8.94065 -0.0010703 -0.0526017 0.0309797
7 1 3.83428 5.3721299 6.9951602 0.0077087 0.0029912 0.003191
8 1 0.938649 12.1824999 7.2866802 -0.110017 -0.0589895 -0.0739646
9 1 2.85674 0.653263 13.6709996 0.0534827 0.0623797 -0.168528
10 1 13.2318001 4.7624302 0.767723 -0.0283615 -0.0090624 -0.0118173
11 1 8.96657 7.8917198 5.4260302 0.0390601 -0.0400658 -0.0056554
12 1 5.5239201 7.6956401 3.0018101 -0.0411307 0.0171018 0.0571249
13 1 7.2200399 2.80477 0.920525 -0.0036642 0.0273452 -0.0344965
14 1 3.7041199 13.2519999 8.8301096 0.126219 0.0421661 0.0970325
15 1 10.4666004 11.3416996 7.7530298 -0.0155067 0.006539 -0.0808658
16 1 7.5633998 2.49561 9.8219004 0.0269608 0.0125453 -0.0161571
17 1 1.29439 4.1079602 4.5889602 -0.0852454 -0.237334 0.0671746
18 1 12.0398998 9.9586402 10.6890002 0.0110091 -0.0259203 -3.4419601e-04
19 1 2.45694 7.75879 0.581582 -0.0433497 0.0613087 -0.001325
20 1 1.6910301 9.5422697 4.2343402 -0.0799618 -0.0594813 -0.0474704
21 1 8.5741902 8.7673702 9.6965199 -0.0465519 -0.006397 0.0122041
22 1 5.58779 12.1744003 3.4379201 -0.0337209 0.0583515 0.0172865
23 1 9.3158903 13.6413002 3.83194 0.0362019 -0.0166751 -0.0033178
24 1 3.6634701 10.6676998 12.1503 -8.5622607e-04 -0.0086641 -0.0117289
25 1 10.658 7.2038899 12.8078003 -0.0291042 0.0036326 0.0265216
26 1 0.63837 13.0170002 2.6835699 -0.0693207 -0.0383446 0.123644
27 1 7.3670302 4.42312 5.5918999 0.0311312 -0.0813149 -0.106787
28 1 7.2796898 10.3439999 0.957235 0.0530128 0.0100873 -0.040058
29 1 3.4024301 4.4906903 1.1533099 0.0868215 -0.0834322 0.0131613
30 1 6.03865 9.6304198 6.6552601 0.0437941 -0.0349105 0.0068178
31 1 11.8213997 13.4371004 12.7087002 -0.0065577 0.0211192 0.0185692
32 1 10.9860002 10.6482001 2.05847 0.0731243 -0.0193289 0.190418
33 2 2.4275 4.7403202 11.5490999 -0.0271291 5.7782097e-04 0.0089532
34 2 11.1232996 13.4782 9.7374697 0.0156351 0.0250067 0.002226
35 2 4.9568802 4.6761499 3.7955699 -0.0113712 -0.0031713 0.0054769
36 2 10.4568997 4.9087702 6.1079798 0.0038476 0.0081605 -6.15627e-04
37 2 12.2488003 11.7222996 5.0524998 -0.0157337 0.0020874 -0.0191242
38 2 1.14605 7.2272101 6.9583802 0.0164292 -0.0093112 -0.0079968
39 2 5.3592401 13.1343002 12.2124996 0.0397523 -0.120328 0.0108315
40 2 1.4964201 10.6420002 9.8944198 0.017282 0.0766193 -0.0171203
41 2 3.7693701 10.9772998 5.53086 -0.0148645 0.0896459 0.036723
42 2 8.3425102 5.52739 11.6575003 -0.0159718 -0.00472 -0.0258462
43 2 8.4243202 13.3829003 0.740067 0.0077464 -0.0099622 0.0168671
44 2 5.3932901 10.5185004 9.4354 -0.0135159 0.0076384 0.0360812
45 2 11.8265 1.45203 2.11008 -0.0618041 0.0546575 0.0048256
46 2 1.5495401 1.4394501 10.9467002 0.0573004 -0.0613221 0.0185296
47 2 5.26998 2.60459 11.8042002 -0.0352817 0.121761 0.0100721
48 2 3.5170901 1.7512 6.2637601 -0.0087033 0.0112081 -0.003192
49 2 13.1563997 6.6879201 11.1501999 -0.0137825 -0.0086491 0.0062869
50 2 6.7617302 1.83214 3.7054999 -0.0280393 0.0032035 0.0291471
51 2 3.0465801 1.90529 2.8881 -2.7445402e-04 0.026469 0.0722902
52 2 8.09023 10.5656996 4.2574401 0.0060658 0.0143881 -0.0163835
53 2 1.303 3.4900999 8.45683 0.0307639 0.0211709 -0.0583595
54 2 2.2715199 6.45151 3.69241 0.216369 0.236023 -0.122859
55 2 10.0569 10.915 12.8576002 -0.0685733 -0.0103997 -0.189452
56 2 9.4102001 1.8104301 6.60956 -0.0747618 -0.0022453 0.0062236
57 2 2.9356202 11.4892998 1.80741 0.0607263 -0.090411 0.0079351
58 2 7.0475101 5.6245899 8.1015596 -0.01167 0.0611838 0.126532
59 2 7.3097401 5.8705002 1.5151301 0.0414762 -0.0399744 -0.0057887
60 2 5.5977202 8.0963802 13.3195 -0.0418612 -0.0151918 -0.0440484
61 2 0.390346 11.1159 12.8775998 0.031698 -5.6950002e-04 0.0479636
62 2 10.3317003 3.6132901 13.4273997 0.0034379 -0.0049397 -0.0167877
63 2 11.4649 8.3576498 7.1872201 0.0036554 0.0581223 -0.0189984
64 2 12.7727003 6.5791998 4.1111102 -0.124174 0.0049858 0.0058536
