ITEM: TIMESTEP
52000
ITEM: NUMBER OF ATOMS
64
ITEM: BOX BOUNDS pp pp pp
0.1130797 13.9029208
0.1130797 13.9029208
0.1130797 13.9029208
ITEM: ATOMS id type x y z fx fy fz
1 1 1.06625 2.87152 12.1413002 -0.0098965 -0.0143878 -0.0267584
2 1 12.4738999 1.7268 6.7372399 0.0141993 -0.0314467 0.0670934
3 1 10.3098002 6.0001302 10.7173004 0.068738 -0.145297 -0.0112887
4 1 9.8509704 6.5121899 2.94837 0.0549756 -0.0050612 -0.0571837
5 1 3.25331 9.1573095 7.5988698 0.0181657 -0.00209 0.0093756
6 1 13.5839997 11.3079004 8.9277602 -0.040642 -0.0135188 -0.0072446
7 1 12.0049 6.0392299 6.856 -0.0183641 0.0045317 0.0124286
8 1 2.1028199 13.6765003 10.4645005 0.0044618 0.0234863 -0.0437701
9 1 7.3259902 12.8192997 12.1973 -0.0024209 -0.0452314 -0.0185373
10 1 3.24107 0.7182001 0.188712 0.0020331 -0.0372835 0.034567
11 1 8.4849501 3.4043 5.94444 0.0584832 0.0442779 0.0127186
12 1 3.2593801 8.4116497 2.8053701 0.0136601 0.0164603 0.0086742
13 1 11.1527004 3.0899999 13.8710004 -0.014555 0.0583106 0.0145409
14 1 4.3481302 3.0782599 8.3136902 0.0115574 -0.0359207 -0.021563
15 1 8.507 11.2915001 8.91712 -0.0039708 0.0294956 -0.0120657
16 1 9.2058401 1.80342 10.3957005 -0.0133492 0.042042 0.0029378
17 1 13.7223997 5.5110202 3.59636 0.002388 -0.0060486 -0.0127425
18 1 8.3257103 7.7768002 12.9263 0.0269798 0.0809928 0.055701
19 1 5.3138299 6.6083398 11.6655998 -0.0636506 -0.0582466 -0.0075201
20 1 0.31935 10.0634003 4.9098902 -0.0455613 -0.0489666 -0.0017031
21 1 7.12784 7.67874 8.7076102 -0.0823928 -0.0325059 -0.0591903
22 1 5.6486402 0.307325 3.0084 0.0309175 0.0240782 0.0089499
23 1 10.2131004 0.203502 2.5316899 0.0053174 -0.0149967 0.0583018
24 1 3.87474 11.0609999 12.1323004 -0.0039929 -0.0362036 0.0392299
25 1 0.219838 8.8086396 0.747084 -0.0287975 0.0225593 -0.0209929
26 1 2.48346 12.8602 4.6891499 0.0374588 0.0252997 -0.0055975
27 1 1.89548 5.4510498 0.381434 0.0972235 0.126796 0.034915
28 1 9.2461701 10.7923002 0.961063 -0.0470224 0.0429272 -0.0249932
29 1 6.44133 2.4014499 13.1028996 -0.0459454 0.0182196 0.0204591
30 1 6.3259201 6.2040801 3.78192 -0.0026433 0.0122563 0.0375507
31 1 12.1025 13.6055002 12.8821002 0.0094732 -0.0502771 -0.0410991
32 1 10.1815004 9.7065401 5.1334901 -0.0294999 0.0102956 0.0281822
33 2 4.0349202 3.3949101 11.2749996 6.3944602e-04 0.0099005 0.0354929
34 2 12.4209004 2.7136901 10.651 -0.0930468 -0.0117108 -0.0351178
35 2 0.589715 11.3135996 12.1216002 -0.0011099 0.0037583 5.9723502e-04
36 2 11.1538 2.49892 4.2728701 -0.0402858 0.05101 -0.0419045
37 2 11.6610003 12.2289 6.3688598 0.015428 -0.0020684 7.9428302e-04
38 2 9.2279396 0.57951 7.1055298 0.0028445 0.0069409 -0.0049546
39 2 10.6914997 11.0683003 11.5541001 -0.0327897 -0.021842 0.0457277
40 2 5.0532799 11.599 8.0733805 -0.03027 0.0489725 0.0556848
41 2 6.5430799 0.57441 8.9993802 0.0035907 0.0123792 0.0232408
42 2 12.1807003 8.3062096 11.9200002 0.0067363 -0.0084567 0.0047981
43 2 9.0818701 1.01913 13.7348004 -0.0251676 -0.0266464 -0.0480096
44 2 6.95466 4.4765702 9.2164898 0.0431283 -0.0105225 0.0183109
45 2 0.253854 1.06722 3.99432 -0.0159124 -0.017501 0.018607
46 2 1.49076 2.9099 1.79107 1.63526e-04 -0.0213963 -0.0098328
47 2 8.12008 4.7646699 12.7811003 0.0378618 0.0196938 -0.0170229
48 2 5.0574999 4.1189599 2.0481601 -0.0171639 -0.0340975 -0.0338553
49 2 2.3563001 6.73631 10.9794998 -0.0421675 9.9290304e-05 0.030457
50 2 7.9527798 2.41644 3.0388701 0.0043244 0.0038188 -0.0168092
51 2 11.3926001 9.4827299 2.37129 0.0656641 -0.0432983 0.0229949
52 2 7.6355 11.8423996 3.9772602 0.0268566 0.0040065 -0.0101933
53 2 1.23799 3.1184299 8.1602802 -0.0103004 -0.002073 0.0096591
54 2 1.5321 6.8148799 6.71416 -0.0264786 -0.0155847 -0.0159532
55 2 6.5074601 9.85641 11.2117005 0.0307324 -0.0192467 -0.0183561
56 2 5.92835 1.99895 5.8119202 -0.0464232 -0.0326095 -0.0086118
57 2 1.93727 11.5246001 1.68458 -0.0288822 -0.0035627 0.0013144
58 2 4.32341 6.0832 8.6548004 6.67482e-04 0.0405115 -0.0240393
59 2 6.6279202 9.7474299 6.37393 0.0481473 -0.0563073 -0.0331027
60 2 5.04988 11.3507996 1.78494 0.0195822 -0.0146306 -0.0173561
61 2 11.0019999 13.3520002 9.6445198 0.0423742 0.0139231 -0.038511
62 2 12.8177996 5.4395499 13.3207998 0.0047498 0.0283104 -0.0160657
63 2 9.6828299 8.5402003 9.5745497 0.0729858 0.0974039 -7.35183e-04
64 2 8.98804 6.8158999 5.7614103 -0.0198066 -0.0037216 0.0493765
