ITEM: TIMESTEP
12000
ITEM: NUMBER OF ATOMS
64
ITEM: BOX BOUNDS pp pp pp
0.2535202 13.7624798
0.2535202 13.7624798
0.2535202 13.7624798
ITEM: ATOMS id type x y z fx fy fz
1 1 4.6506801 6.67166 9.6822205 0.0032548 -0.0178269 2.8231302e-04
2 1 4.8278499 11.2676001 4.86798 0.0025974 -0.0041083 0.0232224
3 1 12.0592003 13.0965004 1.29907 0.0346254 0.014763 0.0066626
4 1 4.4565101 5.7270599 4.9858398 0.0022847 0.0128322 0.0031834
5 1 0.529715 2.90606 0.714549 0.0056455 -0.0278356 -0.0215775
6 1 5.7945099 2.78598 7.3519001 0.0989044 0.0483226 -0.0448728
7 1 5.0601602 9.4089699 12.3704996 0.0399166 -0.0102397 0.0063726
8 1 11.9863998 5.8920898 2.10903 -0.0527888 0.0542317 -0.0373366
9 1 1.57707 3.8573302 9.7987499 0.0208746 0.0011753 -0.0165921
10 1 11.1625004 2.7349801 3.5537501 -0.022773 -0.0512167 0.0025297
11 1 7.68993 9.2631502 3.03528 0.009004 0.0310384 -0.0432377
12 1 1.80215 8.60038 5.7964502 -0.0031319 0.0116949 0.0026194
13 1 11.9336004 11.5536003 4.8241401 0.0015734 0.0647709 0.0194523
14 1 5.90441 11.9557 9.11234 0.0239654 0.0214946 0.0197516
15 1 11.8967 13.0719996 8.7771397 -0.0162811 0.0334155 -0.0332661
16 1 3.8108499 2.5792401 2.1685901 0.0296729 -0.0045792 0.0521632
17 1 0.578514 1.19662 6.1121998 -0.0257668 0.0479105 0.0685898
18 1 2.10636 12.4111996 8.5934801 0.0086409 -0.0475627 0.0805859
19 1 12.1738005 9.96445 10.5943003 0.0251812 -0.0479643 -0.0394555
20 1 12.4603005 6.3982 8.12395 -0.0293418 -0.0066205 -0.0140282
21 1 9.3556805 3.4300001 6.8051801 0.0307474 0.0310828 -0.0558647
22 1 3.92222 1.10988 11.6754999 -0.001914 0.02909 -0.0062772
23 1 8.2467699 0.603508 4.4640298 -0.156583 -0.0274221 -0.0888603
24 1 9.3491001 0.509819 11.3926001 -0.0029186 -0.0589264 0.0715635
25 1 9.94234 3.88399 10.2403002 0.0189383 -0.0041415 0.0578306
26 1 8.1860399 5.5174198 3.5002601 0.0121993 0.017712 -0.0136096
27 1 5.37606 6.50278 1.06222 -0.0089019 -0.0235616 0.0137599
28 1 6.27109 12.8726998 1.3451901 -0.0254325 -0.0113445 -0.0040301
29 1 7.0964198 3.0000701 13.7434998 0.0148797 0.0064863 -0.0011748
30 1 8.87749 8.9817 11.9018002 -0.0057999 -0.0142663 7.6375098e-04
31 1 9.2069702 8.2371798 6.5534702 0.0583851 -0.0044801 0.0361927
32 1 1.4229501 10.1695004 13.2565003 -0.0076134 -0.026315 -0.0354905
33 2 9.1711702 0.600973 1.22254 -0.0156732 0.0154068 0.003324
34 2 0.743677 1.07233 3.25686 0.0036471 -0.0919688 -0.0932064
35 2 7.3133102 5.4272499 7.6925202 -0.020205 0.037698 -0.0023807
36 2 4.0225902 3.9221202 12.9597998 0.0014029 0.0173254 -0.0108167
37 2 3.5021801 1.54654 8.3087702 -0.128043 -0.0496366 0.0638678
38 2 12.1476002 8.64919 4.8498402 2.48961e-04 -0.0470775 0.0153091
39 2 0.816282 10.7706003 2.51506 -0.0376725 0.0308874 0.0744329
40 2 3.92259 9.7181998 2.3267 0.0141368 -0.0123409 -0.023054
41 2 13.3593998 9.9127198 7.85666 -0.0043953 0.0147532 -0.0257141
42 2 12.7533999 3.5646501 11.6661997 -0.0471755 -0.0028195 -0.0274209
43 2 4.4646702 9.4130898 8.2214699 -0.0196564 8.0841799e-04 -0.0167351
44 2 0.668925 13.4263001 11.4185 -0.0074075 0.0027702 -0.0045406
45 2 3.43944 11.7159004 11.6990996 -0.0031123 0.0142 -0.05786
46 2 8.2423096 1.30342 8.7706003 -0.012949 0.0048079 -0.0355961
47 2 9.1057701 5.7136998 13.0679998 -0.0024726 -0.0031172 2.2786e-04
48 2 9.4801398 10.7692004 9.0120201 9.2541895e-04 -5.2353401e-05 0.0051843
49 2 13.3060999 6.8231302 11.7083998 -0.0192069 0.0134131 -0.0076396
50 2 1.5448001 11.8364001 5.7679301 0.0010697 -0.0283723 -0.0595747
51 2 10.6583004 5.81423 5.1805701 0.0258975 -0.0243549 0.0140904
52 2 0.910289 7.3750501 2.93521 0.0504176 0.0167218 0.0030047
53 2 1.65714 7.3724799 9.0081902 0.0289987 0.0035863 7.2607103e-04
54 2 0.334842 3.9891902 3.48311 0.0455361 0.0864628 0.0575413
55 2 7.2511702 11.6584997 12.1576004 -2.6962099e-04 0.010375 -0.0159009
56 2 12.3281002 2.83638 8.2613001 -0.0082619 0.0040591 8.74187e-04
57 2 10.5690003 0.868701 5.95083 0.170408 -0.0364439 0.0895258
58 2 6.33844 3.3789101 4.3254399 -0.0131495 -0.0507356 9.2050104e-04
59 2 6.4773698 8.15518 5.4933 -0.0735496 -0.0218365 0.0102591
60 2 8.2155104 11.0924997 5.6131702 -7.65274e-04 0.0099217 -0.0027928
61 2 9.6900902 6.7335301 9.5690699 0.0020457 0.064415 -0.0092084
62 2 2.93367 13.3620005 0.974645 -0.0022514 -0.0081109 -0.0035767
63 2 11.6875 10.4631005 13.4024 -0.0150176 -0.0137126 0.0502443
64 2 2.93172 7.1680498 12.6147003 0.0044555 0.0053577 -0.0033666
