ITEM: TIMESTEP
80000
ITEM: NUMBER OF ATOMS
64
ITEM: BOX BOUNDS pp pp pp
0.031117 13.9848834
0.031117 13.9848834
0.031117 13.9848834
ITEM: ATOMS id type x y z fx fy fz
1 1 2.0612199 4.73701 8.6094799 -0.0140749 -0.0228478 0.0126188
2 1 1.3585301 0.15898 6.7913099 -0.0375821 -0.0144288 0.0026918
3 1 12.4393997 5.4782 10.7216997 0.0288024 0.0096223 0.164959
4 1 2.0015099 8.0375996 10.4324999 -0.0204662 -0.0308215 -0.0135044
5 1 1.6308301 4.5141702 12.7406998 0.0473042 -0.0582395 -0.105084
6 1 8.9326096 10.9901 5.6456599 -0.0125734 0.0688301 -0.0503261
7 1 9.1146898 6.2652202 3.90235 -0.155718 0.076883 0.0588732
8 1 7.00383 2.5298901 8.6668797 -0.019447 0.0155681 -0.0122442
9 1 13.8832998 9.1782599 13.8852998 0.0140928 -0.0167315 2.77914e-04
10 1 5.1064901 2.5848301 13.2020998 0.012358 0.0505744 -0.0309612
11 1 8.6798001 8.2789698 10.3216 4.26512e-04 0.0174508 0.0446659
12 1 0.179968 5.6184502 1.64633 -0.0108025 0.0494004 0.150892
13 1 0.783831 12.7812004 13.7683001 0.002952 0.0491313 0.0069218
14 1 8.2788096 3.7080701 1.37947 0.0145704 0.0095441 -0.0330447
15 1 10.7922001 7.33776 13.6747999 -0.0455794 -0.0253759 0.009557
16 1 5.6560102 0.0851715 4.9453502 0.0111475 0.0015949 0.0186538
17 1 9.1281605 5.6852198 7.7156301 -0.0037483 -0.0219083 -0.0086155
18 1 10.7045002 10.8728 1.51932 0.0173536 -0.0212698 0.0765752
19 1 12.8763 7.27212 7.9643502 0.0214059 0.0910177 -0.149269
20 1 1.48781 9.3253002 5.4450898 -0.0047343 0.0133088 8.0903702e-04
21 1 5.50452 7.8628502 5.0042601 0.0013442 0.0410081 0.0392765
22 1 12.7249003 11.1505003 8.2740498 0.0077832 -0.00258 -0.0047874
23 1 11.6983004 0.388394 1.70962 -0.0347183 0.024364 -0.0711821
24 1 3.86877 9.9000598 13.3990002 0.0449209 -0.0019576 0.0285285
25 1 10.9906998 11.9587002 11.8341999 -0.0155308 0.0709096 0.0291031
26 1 5.0770001 6.2122202 12.4496002 0.0084942 0.0318866 -0.005408
27 1 3.6939001 4.1001 5.24188 0.0146068 0.0504461 -0.0464147
28 1 7.06253 12.0993996 0.886587 -0.0435278 -0.0322665 -0.0506269
29 1 9.7224198 1.81637 4.9849402 0.106841 -0.0349062 0.0157871
30 1 11.9534998 3.0145199 8.2541704 0.0081363 -0.044585 -0.0532284
31 1 12.2828999 2.07442 11.9658004 0.028931 -0.0571661 0.0129382
32 1 2.6612699 13.0270996 10.2061997 0.0028301 0.017666 -0.0032672
33 2 7.2135701 2.7050801 4.0216599 -0.108511 0.0320866 -0.0114086
34 2 1.3561 2.2479701 10.2053003 -0.0118573 -0.0149462 0.0158291
35 2 4.9654298 8.2372704 9.79525 -2.24612e-04 -0.0563562 0.0492643
36 2 11.2649002 8.1518498 3.2581699 0.045939 0.0315727 -0.0288647
37 2 5.8133602 10.5028 8.0428896 0.0788039 0.0285476 -0.0444643
38 2 8.4732304 0.0885911 7.2422199 -7.8148098e-04 -0.0105131 -0.0161211
39 2 8.9064798 9.8155003 13.4443999 -0.0260677 0.0030059 -0.060412
40 2 11.6392002 12.9973002 4.4115801 -0.0218682 -0.0194962 0.0252898
41 2 7.5636602 7.2042298 0.704257 -0.0050731 -0.0410043 -0.0048389
42 2 11.8797998 9.4489699 10.7728005 0.0259427 -0.0996549 -0.0205584
43 2 3.3620901 3.60075 1.97378 -0.0060711 -7.75697e-04 -0.0135477
44 2 3.6220401 7.3569102 1.2107 -0.020978 3.0310001e-05 -0.0180238
45 2 5.5219302 5.6645999 3.0568299 0.0458343 -0.0436266 -0.0070424
46 2 0.558535 4.6087199 5.86689 -0.0102141 -0.0060018 9.8093596e-04
47 2 12.1202002 4.50313 13.8313999 0.0216592 -0.0098165 0.0172565
48 2 3.7769799 1.86447 7.12426 0.01688 0.011054 0.0297885
49 2 5.7856202 5.61688 7.8271098 0.0054767 -0.0084335 -0.0191154
50 2 9.4433098 8.7523699 7.4029999 0.0260546 -0.0483299 0.0251229
51 2 5.4983502 13.7592001 8.6545601 -0.0040051 -0.0247776 0.0155513
52 2 2.90109 11.2326002 7.5892902 -0.0595905 0.0177615 -0.0052959
53 2 10.0080996 4.1968398 11.7716999 -0.100105 -0.0142843 -0.0365424
54 2 13.2475996 1.85742 3.65117 0.0158786 0.0429174 0.101932
55 2 4.4527102 3.85272 10.2936001 0.008022 -0.007274 0.0205142
56 2 12.8339005 14.0642004 9.3521099 0.005622 0.0063249 0.0077939
57 2 1.5437401 10.6288004 11.7729998 -0.0428992 0.0367669 -0.0377562
58 2 2.8164699 6.91212 6.7166801 0.0263465 0.0131567 -0.0088403
59 2 4.2128902 0.19845 0.582759 -0.026905 -0.0757647 0.0379033
60 2 4.8120599 10.7559996 3.03525 0.0128218 -0.0036766 -0.0037877
61 2 8.2823095 13.0675001 3.31529 0.0426794 0.0303972 0.0681547
62 2 11.0325003 4.4032602 3.1753199 0.106525 -0.115114 -0.049312
63 2 0.6837451 2.0683501 0.959175 3.71698e-04 0.0020486 -0.0689152
64 2 8.1036196 9.0579205 3.2665 -0.0155046 0.0400545 0.0043002
