ITEM: TIMESTEP
68000
ITEM: NUMBER OF ATOMS
64
ITEM: BOX BOUNDS pp pp pp
0.2972381 13.7187615
0.2972381 13.7187615
0.2972381 13.7187615
ITEM: ATOMS id type x y z fx fy fz
1 1 0.937606 2.4906001 7.7481199 0.0038344 0.0236295 -0.0601174
2 1 2.70437 11.4456997 6.88446 0.106797 -0.0155672 -0.0277832
3 1 12.4097996 4.6433802 11.3332005 0.0351227 0.0215631 4.0504303e-04
4 1 1.41546 10.9775 12.6529999 -0.0456124 0.016142 -0.0084866
5 1 0.366406 0.880472 10.9125996 -0.0105776 -0.0225235 0.0315349
6 1 10.8042002 11.2226 7.0028901 0.0102872 1.5167101e-04 -0.001818
7 1 9.35606 5.4439302 4.6054502 0.0255138 0.0212895 0.0575467
8 1 9.92272 2.0022399 9.89493 -0.0030982 -0.0177981 -0.0045234
9 1 6.4940701 7.15907 0.664851 -0.0129813 0.0113165 1.03807e-04
10 1 6.4860101 11.3725996 0.552372 0.0927561 0.0616239 0.0087026
11 1 7.12496 12.5809002 8.3645001 -0.0061985 0.0042705 -0.0088019
12 1 1.24956 7.22401 4.8337403 0.0702242 -0.0433467 -0.0194721
13 1 3.1931901 2.7302001 1.5894901 0.0556464 0.022029 -0.033738
14 1 5.5706201 3.5072999 10.2201996 0.0183204 0.0420686 0.0101312
15 1 7.5788398 7.8580198 6.8940602 2.0799899e-04 0.0072819 -0.0217706
16 1 7.9509902 2.96325 13.0586996 0.0296016 -0.0179472 -0.0029221
17 1 2.3362701 7.7016802 1.39445 0.003357 -0.0151104 -0.040575
18 1 11.6364002 6.5790301 1.89941 0.0563357 -0.0646201 -0.0578643
19 1 4.4004798 8.4840803 10.7291003 -0.0496054 -0.0051994 0.0020119
20 1 13.2060003 10.7560997 3.1242499 -0.0034351 0.0019632 -0.0067562
21 1 3.8899 5.58495 7.4976702 0.0195958 0.002172 -0.0589305
22 1 0.568529 8.6106301 9.6277399 0.0363572 0.13953 0.155976
23 1 13.6527004 2.2035401 3.3215101 -0.13117 0.0715522 0.0871909
24 1 3.58989 11.2605 3.2843499 0.0105136 -0.0193799 -0.0333372
25 1 9.4459801 10.0028 11.5154 -0.0370152 -0.0369421 0.0030757
26 1 7.31948 12.1924 4.5133801 -0.0018061 0.0400562 0.0031338
27 1 6.6540399 4.0237799 2.8910602 0.0417742 -0.0652418 -0.155677
28 1 9.5692501 9.5832997 1.72815 0.0227709 0.0099295 0.0193189
29 1 10.1036997 1.94804 4.6648102 -0.0063487 -0.0911193 0.0460937
30 1 12.4954996 6.36552 7.7165699 -0.0979755 -0.144274 -0.108231
31 1 11.0941 12.9826002 0.86961 0.105047 -0.0285654 -0.0496946
32 1 4.91082 2.21732 5.27142 0.0308015 -0.0969178 0.0658666
33 2 2.3968899 3.4321201 4.9231502 -0.0302279 0.0657029 0.0076235
34 2 3.7060299 1.45064 9.3449001 -0.0518092 -0.0420236 -0.0324946
35 2 3.5094199 11.4934998 9.8768798 -0.0136722 -0.0088498 0.0224162
36 2 0.349553 9.7129298 5.8940502 -0.0527773 0.0541757 0.0287609
37 2 5.6090398 9.8266402 8.0046997 -0.0747387 0.0762092 -0.0680933
38 2 10.8270998 12.2304001 10.3027001 0.0769103 0.0596477 -0.0479944
39 2 7.2549801 8.4444304 9.9528504 0.0945975 -0.0211472 0.0488587
40 2 13.6668997 11.7477999 8.2507296 -0.0863085 0.0264801 0.0986876
41 2 2.26021 3.3703401 11.7543001 -0.0422285 -0.106817 0.0171898
42 2 8.4903898 5.1584601 8.0933399 -0.0069881 7.4649802e-04 0.0024096
43 2 0.694884 4.6782699 0.957054 -0.004557 0.0035312 0.012886
44 2 7.42031 5.7035198 11.3572998 0.0014931 -0.0297719 0.0299532
45 2 4.2237301 5.72542 3.02653 -0.0934936 0.024279 -0.0519048
46 2 2.23756 5.7148199 9.9535904 -0.0319301 0.077159 -0.0168802
47 2 11.5507002 2.1377499 12.8217001 -0.0075688 0.0066899 -0.0114965
48 2 8.61131 13.6678 2.0103199 -0.110871 0.0287748 0.0456994
49 2 4.1707902 5.1658201 13.2283001 0.0426795 0.0426061 0.0154758
50 2 10.9995004 7.91463 4.41009 0.0167193 0.0663668 0.051059
51 2 4.02847 10.0159998 13.5613003 -0.0374195 -0.0721127 0.0043107
52 2 7.63831 9.2988701 3.95185 -0.0191323 -0.0510005 0.0220986
53 2 6.2037001 5.5748101 5.2158899 0.0356804 0.0430456 0.156685
54 2 13.0827999 4.7458101 5.0564899 -0.0799237 -0.0115298 7.99895e-05
55 2 7.5261998 2.2534599 6.7516599 0.030944 -0.0097813 0.0099545
56 2 11.0125999 3.3136001 7.2634502 0.0263027 0.0044715 0.003168
57 2 0.899768 13.4292002 1.70515 0.0276013 -0.106776 -0.0888056
58 2 2.6868401 8.4636097 7.6869998 0.0461865 -0.0277164 -0.026885
59 2 2.1685901 13.5698996 4.75314 0.0296549 0.0160798 -0.0060732
60 2 4.5542999 8.6477604 5.04742 -0.0107189 -0.0013054 -0.0105686
61 2 8.0204697 13.1068001 11.2314997 -0.0244586 0.014261 0.0421203
62 2 9.9043704 3.35601 2.1237199 -0.0027875 0.0462125 -0.0423807
63 2 13.0312004 7.5263601 12.6426001 0.0155914 0.0069924 -0.0043134
64 2 12.6485996 13.6204005 5.7629199 -0.0317901 0.0133833 -0.0021388
