ITEM: TIMESTEP
22000
ITEM: NUMBER OF ATOMS
64
ITEM: BOX BOUNDS pp pp pp
0.2096729 13.8063269
0.2096729 13.8063269
0.2096729 13.8063269
ITEM: ATOMS id type x y z fx fy fz
1 1 8.5351296 1.98627 8.5092402 -0.0105567 0.0313706 0.023043
2 1 2.4540701 11.8447 5.0332398 -0.0459146 0.0086249 -0.0012853
3 1 12.6317997 1.14731 13.3218002 -0.0707551 -0.0109626 -0.0724587
4 1 5.55649 11.0367003 7.35747 -0.0064435 0.004119 -0.0038719
5 1 12.0474005 6.5469799 1.86927 -0.0326133 -0.0916641 -0.0347824
6 1 3.26881 4.0708399 7.8629098 -0.0019159 0.0924722 -0.0058586
7 1 5.0380602 6.2844901 11.7426996 0.0290695 -0.0058319 0.0398824
8 1 11.5366001 7.4744201 5.23488 -0.116951 0.0798147 0.0536914
9 1 2.01579 4.5608902 13.6940003 -0.0155801 -0.0044711 -0.0041919
10 1 13.0248003 2.2673099 3.37251 -0.0051896 0.0453246 0.0352597
11 1 6.62572 5.9246802 2.2488599 0.0443778 -0.0178981 0.0159832
12 1 1.72128 8.2715197 3.46871 -0.016324 0.0349014 0.0784508
13 1 12.3079004 12.0586004 3.74069 -0.0110734 -0.0109665 -0.0381866
14 1 2.5880699 0.654802 7.8410102 -0.034714 -0.0757689 0.0330092
15 1 12.3430004 0.443677 7.0037799 0.021917 0.0720195 -0.0128546
16 1 5.5443802 11.5463 3.26161 0.0364398 -0.0336687 -0.0261601
17 1 4.3986802 1.53009 3.38888 0.0154043 -0.0175724 -0.0145422
18 1 12.9137002 10.7009001 8.16084 -0.0144865 -0.0109027 0.124714
19 1 13.0250998 7.8641 11.6554003 0.0764007 0.0434575 -0.0035722
20 1 0.361245 6.6880999 8.0401802 0.0039613 0.0802618 0.086635
21 1 10.1893997 6.0554299 11.1310997 -0.0628813 -0.105485 -0.0130404
22 1 3.7081001 13.0289001 13.0087004 0.184996 0.129937 -0.043435
23 1 9.0601597 13.6683998 5.51896 -0.0269348 -0.0260786 -0.074112
24 1 8.78055 9.6783304 4.17203 -0.0193116 -0.0310137 0.0470687
25 1 9.8117905 9.10849 0.347034 -0.0032929 -0.0033801 0.0037257
26 1 9.92593 3.3301799 0.999548 -0.0080115 0.0027057 -0.0491103
27 1 3.22803 4.9482598 3.95397 -0.0194944 -0.0023577 0.0200735
28 1 9.1407499 13.1591997 13.1922998 -0.0072162 0.040108 -0.0256512
29 1 5.0170202 1.8961102 10.4162998 0.104718 -0.0289093 -0.0072596
30 1 6.5332699 11.4024 11.1056995 0.0082719 0.0226653 0.0220634
31 1 11.8637 2.95887 10.2332001 0.027097 -0.0190732 -0.014043
32 1 0.969741 11.4533005 11.8612004 -0.147363 -0.0528741 -0.0098673
33 2 13.1802998 13.6120005 9.8925896 0.0132949 -0.0024061 0.0216342
34 2 1.92998 2.0076599 5.1514301 -0.0028827 0.0116732 0.0102344
35 2 7.2766299 6.94863 6.25387 0.0027685 0.0040171 -0.0085084
36 2 1.3702001 1.3994 1.26003 0.127477 0.0571202 0.0430917
37 2 2.29104 2.0077901 11.1878996 -0.112435 3.7955201e-05 0.03074
38 2 13.5967999 10.0221004 5.50211 0.0301285 -0.0665586 -0.0836887
39 2 3.96877 7.2006798 1.77828 -0.0189883 -0.0080011 -0.0252305
40 2 9.87115 5.15873 3.3526399 -0.0363 0.0279941 0.013508
41 2 10.2633 6.7874398 8.1721897 0.0188772 0.0023331 -0.0216457
42 2 12.5560999 4.50668 12.8007002 -0.0265594 0.0034366 0.0379275
43 2 3.3859601 7.4403601 5.9749398 -0.0056228 -0.0086942 0.0089911
44 2 9.6956597 8.9341898 10.9462996 -0.0058572 0.0528406 -0.0287403
45 2 5.50946 9.8941098 0.369292 0.005253 0.0183881 -0.0045504
46 2 7.89642 2.08588 2.9684402 -0.033049 0.0289179 0.0330618
47 2 7.9965602 5.9605298 13.0759001 -0.0253868 -0.0012202 0.0278349
48 2 6.0307798 8.8963804 9.6276903 0.0157699 -0.0324835 -0.0123859
49 2 11.8646002 11.9118004 0.476643 0.0436764 -0.0276871 -0.0138037
50 2 6.1483698 2.95312 5.86128 -0.0093651 -0.0027044 0.0036608
51 2 10.5106001 3.7814901 6.05445 0.0120275 -0.0272292 0.0349855
52 2 2.1091199 12.0566998 1.4685 -0.0782278 -0.10785 0.126448
53 2 3.3807001 7.2084699 9.4819899 -0.049289 -0.0022262 -0.049326
54 2 0.257447 5.92686 5.34937 0.125688 -0.117129 -0.142525
55 2 9.2829199 2.1544099 11.5435 -0.013875 0.0137068 0.0220286
56 2 13.4925003 3.65499 7.8873302 0.0337896 -0.022517 -0.0491927
57 2 10.6011 0.681617 2.6088801 0.0144564 0.010885 -0.0229044
58 2 6.7095099 4.3087602 9.9608298 0.0273304 0.0241665 -0.0105136
59 2 2.74632 11.4314003 9.4566498 0.0233342 0.0068636 -0.0328159
60 2 6.2411399 13.6576004 1.23246 -2.6081701e-04 -0.0068341 -0.0404311
61 2 1.00464 5.28928 10.5228997 0.0188497 -0.0359745 0.0483781
62 2 9.6830702 11.4122 8.1853504 0.0056496 0.0098943 -0.0097466
63 2 9.2176304 11.5609999 2.0046201 -0.0457504 -0.0048283 0.0487072
64 2 0.537825 8.1337004 0.83421 0.0698479 0.0631655 -0.0845398
