ITEM: TIMESTEP
26000
ITEM: NUMBER OF ATOMS
64
ITEM: BOX BOUNDS pp pp pp
0.1910665 13.8249331
0.1910665 13.8249331
0.1910665 13.8249331
ITEM: ATOMS id type x y z fx fy fz
1 1 8.9172096 4.8144799 7.9126702 0.0128187 -0.0394281 -0.0217457
2 1 2.7242401 12.2922001 6.8067699 0.0498435 0.0681753 -0.027556
3 1 13.5214005 2.9673902 1.4498301 0.0655159 -0.10553 0.0039773
4 1 8.1759796 0.794795 7.8049102 -0.100601 -0.0349823 0.0130416
5 1 11.9476004 6.0034399 1.31698 -0.102633 0.0707728 -0.0028818
6 1 2.4333899 3.2649601 8.0886297 0.0269334 -0.0101255 0.051213
7 1 4.35466 6.0994301 11.8009005 0.0053664 -0.0407698 -0.0047868
8 1 11.9151002 10.0692997 6.8446002 -0.0105059 0.0059191 -0.0122989
9 1 4.5167399 2.8762902 0.623682 -0.0616554 0.0374008 0.0030152
10 1 11.8810998 4.6238199 5.4777398 0.0227271 -0.0418764 0.0192004
11 1 8.9983598 7.58001 2.93595 -0.0920085 0.0055346 -0.0325526
12 1 1.74937 6.8213301 1.08722 0.0367615 -0.0117653 -0.0184094
13 1 12.9119998 10.7413998 2.96367 -0.0465303 -0.0781221 0.060364
14 1 3.56245 13.7701998 10.2674999 -0.0966737 -0.0688171 -0.0191587
15 1 11.1295004 0.463109 5.7300101 0.0692314 -0.075343 -0.0748473
16 1 6.22855 11.6344996 10.7025004 0.0861335 -0.0878577 -0.0502457
17 1 5.9095502 2.0710599 4.15275 -0.0303038 0.0057888 0.0078713
18 1 11.7249003 8.7159901 10.5439997 -0.0107923 4.8445802e-04 0.001719
19 1 13.7911997 5.4973603 11.4847002 0.008605 0.0074945 -0.0052877
20 1 1.0533 7.2539601 7.5350499 -0.225958 -0.123797 -0.0811226
21 1 7.9386502 7.1928301 10.4821997 -0.0061431 0.0292115 0.0243311
22 1 5.4524799 12.9417 0.261897 -0.0054184 -0.0035148 0.0504505
23 1 8.9909402 12.4691 2.85741 0.0157426 0.0174258 -0.0068359
24 1 4.8975302 8.1415796 2.0882199 0.0320522 0.0049557 0.0083779
25 1 8.6328001 9.9221498 13.6189003 -0.0188808 -0.0182294 -0.0035061
26 1 8.90376 3.0292599 1.7823301 0.0613487 -0.0310066 0.0129304
27 1 3.94502 5.6204601 5.1894202 0.0948671 0.0502241 -0.0134779
28 1 9.7125702 13.0452995 12.0780001 -0.0611115 0.0720824 0.0652488
29 1 6.3508401 2.5690301 10.5419998 -0.020939 0.0441869 -0.093603
30 1 3.8178101 8.5733996 8.6520205 0.200541 0.0992451 0.0893857
31 1 12.2677002 1.96176 10.9497004 0.0270473 0.0546604 -0.0048357
32 1 0.923224 10.6178999 11.9939004 -0.051635 0.236438 0.137564
33 2 12.2356005 12.6545 10.7094002 0.0239299 -0.0980568 -0.0714829
34 2 13.5937004 1.91701 6.76228 -4.13868e-04 -0.0010333 0.0233273
35 2 7.94029 7.5535999 5.97756 0.0041351 -0.0119466 0.0016729
36 2 2.0207 1.6354701 3.87271 0.0197696 -0.0201825 -0.0211439
37 2 0.556879 0.450069 12.4849997 0.097205 -0.0114803 0.0700631
38 2 13.8021002 12.8069 5.15692 0.0031905 -0.0399395 0.013434
39 2 3.6949401 8.90827 12.5435 7.4564996e-04 0.0311653 0.0218523
40 2 11.2995997 7.4349299 4.6625099 0.0628896 0.0374279 0.0276594
41 2 10.7781 7.2774601 7.9242802 -0.0017929 0.0199751 1.8127901e-04
42 2 10.5924998 4.2182202 11.7037001 -0.0286818 0.0547304 0.0165402
43 2 4.4236002 10.9280996 4.6269202 -0.017236 -0.0074923 0.0184386
44 2 9.1167698 11.8504 9.4528799 -0.0044324 -0.0207886 -0.0477442
45 2 6.97852 7.2950201 13.6222 0.0043159 0.0076691 -0.0261592
46 2 6.5616699 4.8196101 1.92608 -0.0380079 0.0186291 0.0278212
47 2 7.1013699 1.95364 13.2137003 0.0636448 -0.051974 0.0625572
48 2 6.3901901 10.0316 7.8070002 -4.6604901e-04 0.0104196 0.0159657
49 2 11.4045 11.3197003 0.297547 -0.0059437 0.0011587 -0.0085585
50 2 4.9312 1.0215501 7.6999002 0.0071222 0.0090141 -0.0123295
51 2 8.7680502 1.9588702 5.0659499 -0.0302834 0.0532133 -0.0351901
52 2 2.2232599 11.1975002 0.930682 0.071702 -0.0452102 0.0190135
53 2 1.2868201 8.4907799 10.3999004 0.0193966 -0.317296 -0.0661742
54 2 1.50066 4.2080998 5.45362 -0.100407 0.043117 -0.0216671
55 2 11.4364004 0.733913 1.06576 -0.10579 0.051519 -0.0301957
56 2 12.6435004 4.8252201 8.6913004 0.0116804 -0.0247855 -0.0115724
57 2 0.321038 13.1912003 2.0185201 0.0577779 0.116296 -0.0049681
58 2 5.8943602 4.2905102 7.2993398 -0.0076002 -0.0129805 0.004765
59 2 1.14239 10.3310003 8.1766501 -0.053529 0.0213992 -0.0404075
60 2 6.4491902 10.7219 2.3033199 0.0453539 0.0086441 -0.0362198
61 2 3.2958 2.77317 11.2356997 -0.014725 0.120313 0.0410882
62 2 10.9154998 1.4972101 8.4155798 0.0076986 0.0380346 0.0427219
63 2 8.6953697 11.0103998 5.7179098 0.0240002 0.0119013 -0.0078093
64 2 13.1549997 8.8148003 0.706808 0.0110058 -0.0302956 -0.0410178
