ITEM: TIMESTEP
92000
ITEM: NUMBER OF ATOMS
64
ITEM: BOX BOUNDS pp pp pp
0.2597551 13.7562447
0.2597551 13.7562447
0.2597551 13.7562447
ITEM: ATOMS id type x y z fx fy fz
1 1 1.32739 6.4933 7.9589702 0.0035935 2.8035901e-04 0.0152435
2 1 11.6011 1.71151 7.2357702 -0.0501365 -0.0468891 0.0359786
3 1 9.25632 5.0166602 10.8116999 0.0289521 -0.0455822 0.0016419
4 1 2.4799199 8.4208203 13.4338999 -0.0061026 -0.0085015 0.0117262
5 1 1.17085 3.4901901 5.5391402 0.0456679 0.0238911 -7.75593e-04
6 1 9.1873303 10.6140003 6.7153902 -0.0439316 -0.0487487 0.0406998
7 1 7.1775098 9.62074 3.0397601 0.00358 -0.0210104 -0.012004
8 1 5.94207 11.5307999 10.4151001 0.109355 0.0439908 -0.115316
9 1 1.6578701 3.0186601 13.5143004 0.0018005 -0.0286422 0.0090207
10 1 6.1792498 12.8773004 4.4106898 -0.0402626 -0.0866712 -0.0392863
11 1 9.0195599 8.4985304 12.8436004 0.0108486 0.0134648 -0.0085716
12 1 1.2518801 7.88544 3.84659 -0.044056 0.0560328 0.0336997
13 1 2.6294999 12.3994999 11.1601 -0.0735831 -0.0356959 0.0141636
14 1 8.4552803 0.890285 9.2125197 -4.5401602e-04 -0.0142866 0.0285981
15 1 11.9262 5.1465502 0.31135 0.0104647 0.0658427 -1.6168e-04
16 1 2.87202 11.5944004 3.0217199 -0.0131101 0.0010343 0.0026967
17 1 4.91257 4.92698 6.8625002 7.8449002e-04 0.0301283 -0.006041
18 1 12.3057003 11.5105 5.1238599 -0.0059668 -0.009818 -0.0592333
19 1 13.4362002 9.93423 11.2320995 -0.0468777 -0.0448413 0.0249164
20 1 0.928501 11.5165997 8.1154404 -0.0629313 -0.0611106 0.0013147
21 1 4.4486199 8.9519396 5.5103998 0.0118712 -0.0057098 0.055048
22 1 7.2107902 2.1408801 6.0244398 0.189639 0.0866303 0.108974
23 1 12.0612001 1.84352 3.6496101 -0.0311097 -0.0159589 -0.0708908
24 1 8.1370602 6.0643201 2.1236701 -0.0240915 -0.0225087 -0.0270875
25 1 12.6048002 13.4968004 12.6152001 0.0344856 -0.0352583 -0.0319984
26 1 5.53017 2.88995 11.2188997 -0.0210175 -0.020531 -0.0442767
27 1 4.53896 3.7127099 2.3587101 0.0342658 -0.0440456 -0.0335905
28 1 7.60602 12.5762997 0.575156 -0.011391 0.001154 -0.020122
29 1 9.8071003 4.9457898 5.12818 -0.115153 -0.0453037 -0.0164775
30 1 10.8676996 7.23036 7.6420002 -0.0086403 0.0535227 0.0549436
31 1 12.9624004 3.1343 10.4488001 -5.8222604e-04 0.0352812 -0.0039333
32 1 3.1803701 13.7143002 6.78897 0.0116574 0.0950406 -0.0674195
33 2 12.2199001 11.8177996 1.57425 -0.0973314 -0.0208765 0.0634041
34 2 12.0541 4.59616 6.8948398 0.0862711 0.0094523 0.0436005
35 2 4.9105602 7.6588702 8.3777704 0.021029 -0.0233441 -0.0248437
36 2 11.4020996 11.3113003 9.2618799 0.0304889 -0.0097117 -0.06554
37 2 9.8156901 12.0040998 11.7235003 -0.0354155 0.0138567 0.054119
38 2 5.0626702 11.6226998 7.47291 0.0394815 -0.0599638 -0.0102171
39 2 0.379181 0.445109 5.80298 0.0197323 0.0081895 -0.0157398
40 2 9.2801504 13.3079004 5.5588398 0.0134603 0.0537236 -0.0158473
41 2 12.0728998 6.7656698 10.5591002 -0.0171252 -4.4708801e-04 -0.0034029
42 2 1.10015 5.75839 12.2465 0.0080482 0.0041424 -0.0469187
43 2 7.5405898 3.10867 3.1598899 0.0086416 0.0105852 -0.0061264
44 2 2.2582801 1.63613 10.0544004 -0.0109094 0.016676 -0.0080132
45 2 7.2599902 6.7111902 5.3660202 -0.0178234 0.0114396 -0.0125375
46 2 3.6055801 4.5230799 9.64433 -0.0292533 0.0394964 -0.0180515
47 2 7.4791003 3.91163 13.1104002 0.0410687 0.0275424 0.0604155
48 2 4.5864501 2.4330201 5.1849499 -0.155833 -2.83966e-04 -0.0607637
49 2 1.4628101 5.84512 1.79991 -0.0432696 -0.055035 -0.0766634
50 2 8.29741 7.6055002 9.8191901 -0.0098616 0.0459302 -0.0225522
51 2 5.0394201 7.3930302 12.1101999 0.0226053 -0.0545816 -0.0144714
52 2 3.20908 9.4427204 10.1999998 -0.0502626 0.0343448 0.0145508
53 2 5.2571702 1.27151 8.5348397 0.0587391 0.0281924 0.032448
54 2 12.1470003 5.0054898 3.4360099 0.0623564 0.0027751 -0.0329618
55 2 3.5548301 5.95287 3.8948902 0.0549195 0.0210485 0.12691
56 2 8.0876999 4.52562 7.81142 0.0050866 0.0014864 0.0099412
57 2 4.91496 10.3879004 12.7526999 -0.0485961 0.0028568 0.144841
58 2 4.0955801 8.7750998 2.53877 0.0081621 0.0121646 -0.031949
59 2 4.6050902 0.387565 12.5711003 0.0631846 0.01815 0.0593378
60 2 1.36114 11.3516998 0.319188 0.067643 -0.0338193 -0.0623369
61 2 11.2268 2.2923999 0.326121 -0.0235269 -0.0050101 0.0258745
62 2 9.9191104 8.22157 3.4597399 -0.0071392 -0.0072592 0.0382099
63 2 0.968917 0.440456 2.11463 0.0114471 0.0500151 0.0076574
64 2 11.8724004 8.31176 1.02457 0.0264135 -0.0069159 -0.0338533
