ITEM: TIMESTEP
28000
ITEM: NUMBER OF ATOMS
64
ITEM: BOX BOUNDS pp pp pp
0.4309776 13.585022
0.4309776 13.585022
0.4309776 13.585022
ITEM: ATOMS id type x y z fx fy fz
1 1 8.1173801 4.4136701 6.97431 0.0045379 0.0071327 6.3322897e-04
2 1 3.3439901 13.0712004 5.2360501 -0.0119428 -0.0255518 0.0018262
3 1 0.5249861 2.63197 0.978327 0.063536 0.0338302 0.0542552
4 1 8.9387198 13.4537001 7.4850302 -0.0062141 0.0298223 0.0435359
5 1 11.0862999 7.8357401 1.49157 -0.0748976 0.0555271 0.069767
6 1 1.56093 3.4967799 8.2729797 -0.0016419 -0.0062015 -0.010097
7 1 4.1907401 5.4067702 10.0909996 -0.0362443 0.0921333 -0.039535
8 1 11.224 10.2223997 7.7515402 -0.0104029 0.0150321 -0.0350428
9 1 4.0276799 1.56959 1.22381 -0.151596 0.0987107 -0.107997
10 1 12.0479002 4.75668 4.43399 -0.0681462 -0.0331944 0.0289645
11 1 8.8041601 8.7381296 5.0534 0.0862699 -0.0174651 0.0467433
12 1 1.86401 5.8674302 3.01196 0.0092239 0.0818571 -0.052473
13 1 0.779912 10.2320995 4.1259298 0.0686343 0.0640165 -0.0834032
14 1 2.2707801 12.3140001 9.62393 0.0234401 -0.0476464 -0.13422
15 1 12.7264004 0.734445 4.9099302 -0.0400708 -0.0116786 -0.0047528
16 1 5.7838998 12.6315003 11.8360005 -0.0051769 -0.019281 -0.0534211
17 1 4.9312802 3.2222901 4.3811998 7.8961102e-04 0.0294973 0.0199358
18 1 11.0682001 8.92169 11.2212 0.0354349 0.0407049 -0.0082874
19 1 12.8884002 5.6708498 12.7104998 0.0171645 0.0476009 -0.0874105
20 1 0.78757 7.1670699 6.6359201 0.0098296 0.0166232 0.0255278
21 1 8.4270296 6.8010402 10.0733004 -0.0378113 -0.0145092 -0.017722
22 1 4.1364999 11.1543999 2.0859799 0.0119156 -0.0193166 -0.0134619
23 1 8.8941804 12.4993 2.21895 -0.116288 0.203468 0.089238
24 1 4.0943298 7.4197302 13.4358998 0.0034532 -0.0051506 0.089153
25 1 7.5562802 9.7005101 13.3715 0.0307419 -0.0856101 -0.282201
26 1 9.8479404 3.07669 1.53474 -0.0344478 0.0441308 -1.71192e-04
27 1 5.9603802 6.90687 4.1142998 0.0305629 -0.0891866 -0.0058463
28 1 9.4501105 12.4537001 11.4319 0.0282982 0.0166085 -7.4081798e-04
29 1 6.5404501 4.1963301 12.4215002 0.0057016 -0.0297968 0.0201454
30 1 5.4482003 9.9937496 8.4163599 -0.0268172 0.0060163 0.0694146
31 1 12.6746998 1.36516 10.6675997 -0.0437378 0.0801246 0.0655999
32 1 0.733748 11.1323004 12.8386002 -0.0718152 -0.0986335 -0.0412697
33 2 12.3375998 11.7103005 10.1391001 -0.0105941 -0.0747578 0.0138455
34 2 13.4990998 0.711325 7.8922902 -0.0042091 -5.89636e-04 -0.0477933
35 2 6.7894001 7.52458 7.1331501 0.0218242 -0.0052405 0.0071418
36 2 1.89342 2.2330001 3.8092599 0.0276554 2.8569698e-04 -0.0563657
37 2 2.8894502 13.0179996 12.2793999 0.0052872 0.0486477 0.072391
38 2 1.0353 10.7224999 7.0019102 0.0194758 0.0064782 0.0501222
39 2 4.1694999 8.49261 10.7889996 0.0054888 0.0360755 -0.0722987
40 2 12.1491003 8.0333996 4.2434101 -0.0563588 -0.0845407 0.0387492
41 2 10.8223 7.2252202 7.3154898 -0.0167024 -0.0188211 -8.8295899e-04
42 2 10.2798996 4.2217598 11.1148005 0.0010417 -4.55789e-04 0.0115985
43 2 6.1192498 0.87806 2.8234899 0.160365 -0.0898745 0.137718
44 2 8.3447704 10.3093004 9.2602701 0.0344676 -2.5969401e-04 0.0101458
45 2 8.07932 6.42311 0.538011 0.0228763 0.0352166 0.0094575
46 2 4.0915399 4.6771798 1.5676201 0.0526629 -0.0453904 -0.0177144
47 2 7.5103402 1.47603 13.1620998 0.050604 -0.0137962 0.0321438
48 2 5.1554198 13.4118996 7.6259399 0.0166006 -0.005475 0.0300383
49 2 10.5957003 10.8919002 0.836287 0.142685 -0.155807 -0.129835
50 2 4.1775599 2.50646 10.2861004 0.0051343 -0.0780234 0.004657
51 2 8.6594496 2.55546 4.4551602 0.001754 -0.0081777 0.0016338
52 2 3.69081 8.52598 3.6651299 -0.10707 0.0535048 -0.0224701
53 2 0.940874 7.7928901 10.0352001 -0.0152934 -0.0027631 0.001546
54 2 2.3427801 4.6143499 5.5879202 -0.0360733 0.0257767 0.0345841
55 2 11.4870997 0.8353271 0.546783 -0.0840331 -0.0719317 -0.0625176
56 2 11.5391999 3.67153 7.39047 0.0016784 -0.00374 -5.6508603e-04
57 2 0.947457 13.0306997 1.7872 0.0641586 -0.0248946 0.128933
58 2 4.95718 4.8639998 7.0556698 0.0416451 -0.0055134 0.0303938
59 2 5.7867599 10.5859003 5.6279803 -0.0183442 0.0116282 -0.0724769
60 2 7.3118701 10.0716 2.86601 -0.0850166 -1.4967101e-04 0.212413
61 2 1.4033901 3.6420601 11.3443003 0.0292197 1.1382201e-04 -0.0035235
62 2 7.41643 2.1111901 9.9844198 0.0135448 -0.0055332 -0.0131229
63 2 8.7239504 11.7097998 5.1140099 0.0321771 0.0270019 0.0151693
64 2 1.16467 8.3886004 1.12689 -0.0089354 -0.0086083 0.0101976
