ITEM: TIMESTEP
106000
ITEM: NUMBER OF ATOMS
64
ITEM: BOX BOUNDS pp pp pp
0.3028677 13.7131319
0.3028677 13.7131319
0.3028677 13.7131319
ITEM: ATOMS id type x y z fx fy fz
1 1 3.37761 5.9733602 7.2763 0.0237329 0.004864 -0.0610033
2 1 11.1886997 0.868723 4.7473102 0.0321439 -0.0697366 0.0806244
3 1 11.5650997 6.0483799 10.7175999 -0.143155 -0.0352526 0.0801247
4 1 1.34638 12.2593002 13.4533005 -0.0901846 0.0323665 0.0374682
5 1 12.8803998 2.6901601 2.2061701 0.0250623 0.0287562 -0.05021
6 1 8.1671896 9.1236296 8.4556799 -0.0341941 0.0191513 0.0380143
7 1 9.3231402 3.7451101 6.11445 0.0380593 0.0464705 0.0096353
8 1 1.17994 7.6458903 10.9061004 0.0883433 -0.0347668 -0.103138
9 1 3.5507601 3.38497 12.4923001 0.0960193 -0.0064622 -0.116454
10 1 4.88759 10.5033999 6.8442602 0.0852313 -0.126806 -0.111176
11 1 4.5562101 7.9977798 12.5185004 -0.0328245 -0.24089 0.0708398
12 1 2.36268 6.8794498 3.4356201 2.0404699e-04 2.2803099e-04 -0.0019385
13 1 0.752304 12.3395004 8.5787602 -0.0388782 0.0057201 0.0420542
14 1 10.4162998 12.8575002 9.1665201 -0.0327126 0.0037634 7.81036e-04
15 1 7.6226001 8.8762102 2.6536501 -0.0126023 0.04829 -0.0275369
16 1 10.7278004 10.9418002 2.5265901 0.0241375 0.0294105 -0.0558477
17 1 7.6570401 3.81143 9.84577 0.0064223 -0.0064037 0.0156236
18 1 6.5440502 6.5197301 5.1203499 0.0281216 -0.0232986 0.0847185
19 1 10.0629997 9.5613404 12.2007999 -0.0142484 0.003032 0.0097535
20 1 1.40818 10.1689997 5.6413002 -0.0362752 -0.022731 -0.0265661
21 1 4.7125802 11.29 0.584871 0.0097861 0.036081 0.0458834
22 1 7.7044201 13.1499004 1.4086 0.01778 0.0479388 0.0303624
23 1 10.0261002 2.25667 11.9947996 0.0058701 -0.0044793 0.0511737
24 1 9.0261202 4.71768 2.3811901 -0.0340822 0.0437251 -0.0470392
25 1 3.7855101 2.33479 8.8950396 0.0145639 -0.0345338 -0.0250526
26 1 6.3950901 13.6552 11.1476002 -0.212068 0.0154046 -0.0993328
27 1 4.0747199 3.5874801 4.27139 -0.146218 0.194873 0.0756883
28 1 3.0125201 13.5010996 4.56947 0.0652709 0.0085125 0.0402342
29 1 12.8971996 5.5466399 7.5688901 0.0258823 -0.0276529 -0.0619212
30 1 11.0916996 8.6284504 6.4448099 0.0185021 0.027629 0.0071483
31 1 13.6921997 2.7937401 10.9686004 -0.0141006 -0.0068097 -0.0179721
32 1 7.4656201 0.332366 6.2424202 -0.0191616 0.0315391 -0.039808
33 2 4.25212 1.27675 1.04207 -0.0268876 -0.0675416 -0.0137802
34 2 6.5989599 3.3069699 7.1574001 -0.075858 -0.0128398 -0.0379952
35 2 6.8560902 12.0747004 8.5991602 0.0293301 -0.0316501 0.0316192
36 2 11.6525002 0.31347 0.345436 0.0186398 -0.0185523 0.010412
37 2 12.9421998 5.8105302 0.84363 -0.0031133 -0.0044905 -0.0054025
38 2 1.46531 4.1314302 5.6062799 -0.023694 0.0053117 8.3310795e-04
39 2 9.7364502 1.91909 2.47611 -0.0229342 -0.040803 -0.0486172
40 2 11.6240998 9.9625196 9.54564 0.0056329 -0.0107982 -0.0191591
41 2 6.9347602 9.5567904 12.9385004 0.101857 0.0331377 0.0126234
42 2 9.90267 7.6041699 1.3779 0.062517 0.01778 -0.053134
43 2 5.6352201 1.49866 3.66873 0.228735 -0.222946 -0.0032803
44 2 4.2560802 10.3306999 11.0834999 -0.0288694 0.156267 -0.108568
45 2 9.4665203 6.3372598 8.3491802 0.0185694 -0.019547 -0.0190263
46 2 11.9595004 11.7993002 6.5775399 0.070084 -0.0175658 0.0261861
47 2 6.8143401 6.5966702 10.2945995 -0.0288991 0.0591706 0.0100563
48 2 6.3882098 11.6462002 3.69382 0.0013737 0.0276743 0.0141902
49 2 0.914689 9.3197003 13.1451998 -0.0112959 0.0420736 0.0986465
50 2 2.4287 8.6472197 8.2609997 -0.0018711 0.0389593 -0.0023376
51 2 6.7916098 2.468 12.9524002 0.0371349 0.0608314 0.0298386
52 2 9.0436096 5.5573001 12.5936003 -0.0046444 -0.0370222 -0.0238756
53 2 3.6491399 12.3990002 8.4252701 -0.0248077 0.132305 0.0876817
54 2 9.69201 6.8436098 4.3343902 -0.0205046 0.0052208 0.0733888
55 2 4.9773998 8.9428396 3.97855 -0.0745464 -0.0331104 0.0228736
56 2 2.91899 5.0584898 9.9924898 -0.0280927 0.0028158 0.0599307
57 2 0.799747 12.2581997 3.22789 -0.0793833 -0.0370686 -0.0394672
58 2 5.2665401 5.6861601 2.61126 0.0052576 0.0279124 -0.0754466
59 2 8.8108902 12.7758999 12.0806999 0.19459 -0.0849898 0.0304343
60 2 3.09957 13.6564999 11.5938998 0.0420652 0.037289 -0.0558215
61 2 10.7706003 3.3048501 9.1335297 0.0059716 0.0039343 -0.0049501
62 2 12.3108997 8.7211905 3.6868501 0.0512866 -0.0184294 -0.0030931
63 2 2.37291 3.9063302 1.5546 -0.0673323 0.0409642 0.142916
64 2 9.45644 11.7771998 5.0503302 -0.0947389 -0.0222252 -0.0128073
