ITEM: TIMESTEP
90000
ITEM: NUMBER OF ATOMS
64
ITEM: BOX BOUNDS pp pp pp
0.3534493 13.662551
0.3534493 13.662551
0.3534493 13.662551
ITEM: ATOMS id type x y z fx fy fz
1 1 0.92547 5.8414402 8.4204798 0.135224 0.0620979 -0.0319488
2 1 11.1907997 3.1515999 7.1223402 0.0599354 -0.0289501 -0.0239062
3 1 8.0695496 7.19417 9.5473099 0.0043437 -0.0785992 0.0781783
4 1 3.6038301 7.2021098 12.9090996 0.0270268 0.0167598 0.0352957
5 1 1.5037 1.84735 4.7030301 -0.0243657 -0.0055389 0.141504
6 1 8.8600998 11.2242003 5.2681699 -9.4130497e-05 -0.0171856 0.0068929
7 1 6.64538 8.3326903 2.85949 0.0469851 0.0193191 -0.0428967
8 1 5.9983002 11.2444 9.6931401 0.064271 -0.0458571 0.0128946
9 1 1.15584 1.54723 13.3171997 -0.0585346 0.0280297 -0.029068
10 1 6.69556 13.1084995 2.63467 -0.0346982 0.0281969 0.015967
11 1 9.5412102 10.6114998 11.8399 -0.0081482 -0.018662 -7.9264898e-04
12 1 1.0376 8.2142897 4.0048099 -0.0459944 0.024179 -0.011604
13 1 3.0214701 11.8577004 12.2683001 0.0223061 0.0909783 0.0144102
14 1 9.0956898 3.3718901 10.4022999 0.0495079 0.002872 0.0074864
15 1 12.2203999 5.9158802 1.41486 0.0093379 0.0348569 -0.0891287
16 1 2.73262 11.9715996 4.1206398 0.0532303 -0.0920525 -0.0280517
17 1 5.4659601 4.12991 6.6322599 -0.0783823 0.112743 0.0368804
18 1 12.9091998 12.1267004 6.40837 0.0135218 -0.0075392 -0.0267753
19 1 0.741143 9.0043097 11.0523996 -0.0482613 -0.0198667 0.0066895
20 1 2.89677 10.5451002 8.1366901 -0.070998 0.0277128 -0.0319463
21 1 4.1557102 7.7946902 6.16609 -0.0363082 -0.0235645 -0.0636115
22 1 7.57302 1.4227801 6.54001 0.0479866 -0.0964726 -0.0044801
23 1 10.9344998 1.88021 2.9470502 0.0402176 0.0484046 -0.0998737
24 1 8.4581099 6.0929399 13.4729996 0.002299 -5.5714202e-04 -0.0035032
25 1 10.6900997 12.9136 9.1492996 0.0669417 0.0168384 0.0036293
26 1 5.6174598 3.43817 12.9398004 -0.138619 0.280993 -0.125865
27 1 3.99467 3.6937101 2.6547699 -0.039707 0.161769 0.0737985
28 1 6.8980398 0.619749 12.1075001 0.0990863 -0.252577 -0.0105028
29 1 8.1714602 4.5872402 4.0620098 0.0377431 0.035376 0.0412104
30 1 10.3892002 6.5717702 5.8122602 0.0672639 -0.0452062 0.0279319
31 1 13.2254 3.0239601 10.2357998 -0.0207231 -0.0409236 0.036056
32 1 4.2103701 0.913233 8.51371 0.003581 0.0050635 -0.0305389
33 2 8.4298296 10.9464998 1.35082 0.0296736 -0.0136778 0.0235098
34 2 11.4054003 5.9541702 8.4875098 -0.104218 -0.0204371 0.0452164
35 2 5.3097301 7.9422402 8.8696204 0.0122493 -0.0026663 -0.0215126
36 2 12.9344998 8.6738301 7.4566598 0.0138723 0.0085667 -0.0095101
37 2 7.93779 13.6605997 9.4151001 -0.0553521 0.0272052 -0.0467827
38 2 5.3937898 11.9656 6.1061902 0.0010259 0.0071198 0.009512
39 2 1.07968 13.356 9.5971699 0.0030617 -0.008706 -8.1164198e-04
40 2 10.3682003 0.734496 5.4578901 -0.0133866 -0.0689475 0.102333
41 2 11.2546997 6.00945 11.6868 -0.0146667 -0.0081101 0.0130205
42 2 1.23079 5.5401001 12.3312998 -0.0439502 -0.0313015 -0.0116705
43 2 6.7920299 3.10056 2.1797199 0.0408242 -0.119656 -0.0377342
44 2 3.1740201 2.4200499 10.8725996 -0.0326658 -0.033314 0.0534626
45 2 7.0050402 7.1565099 5.5481901 0.0456413 -0.0371837 0.0396802
46 2 3.95595 5.30897 10.3367005 -0.0203204 0.0715551 0.0012882
47 2 9.8128596 3.2853899 0.400243 -0.0017917 0.00669 -0.0110182
48 2 5.1252799 1.9002 4.6615701 0.0020878 -0.070814 0.030538
49 2 1.06338 3.4835701 2.49401 -0.0168714 0.0652582 -0.17514
50 2 9.3496304 8.6829005 7.48876 0.0187811 0.113187 -0.0356301
51 2 6.3945298 8.1583405 12.2203999 0.0383183 -0.0037042 -0.0158504
52 2 3.68623 9.4785805 10.8381996 0.0098897 -0.0352463 0.0167009
53 2 6.21631 3.32071 9.7446203 -0.006233 -0.0383694 -0.0259366
54 2 12.1289997 4.63022 3.95103 -0.100911 -0.0078094 0.154289
55 2 1.6656 5.6050802 5.3671799 0.0216494 -0.0261211 0.0107496
56 2 8.5025702 4.2553401 7.1102099 -0.0348135 0.050158 0.028709
57 2 5.3843002 10.5128002 0.862777 -0.0148356 0.0457419 -0.0379337
58 2 3.7527101 8.9379598 2.8622302 -0.0355337 -0.027025 0.052998
59 2 3.0546701 1.06741 2.0745001 0.0717189 -0.126489 0.035541
60 2 1.58699 10.3239002 1.06659 0.017962 0.0023614 0.0120229
61 2 11.6683998 0.797455 12.0775995 -0.0064072 0.0028228 -0.0140341
62 2 10.1932001 8.5699902 3.8041201 -0.0184403 0.0689365 -0.0702696
63 2 13.4372998 13.0113001 2.5778001 -0.0094462 0.0152663 0.0096896
64 2 12.0572004 9.2080402 0.952619 -0.0428868 -0.0279283 -0.0097568
