ITEM: TIMESTEP
110000
ITEM: NUMBER OF ATOMS
64
ITEM: BOX BOUNDS pp pp pp
0.1851596 13.8308401
0.1851596 13.8308401
0.1851596 13.8308401
ITEM: ATOMS id type x y z fx fy fz
1 1 3.81827 5.1059399 6.0314398 0.0373151 -0.0352268 -0.0161579
2 1 12.2781 13.6168003 6.2526102 -0.045187 -0.0376555 0.0197367
3 1 11.2051001 6.7041998 9.8867102 -0.0018562 0.0560111 0.0461231
4 1 1.5697201 0.5516081 12.6899996 -0.0200776 0.0170291 -0.0210116
5 1 13.4764004 4.7762599 12.7048998 0.0068509 0.0101242 -0.0100429
6 1 7.1946101 8.8100996 12.1842003 0.0058149 -0.0014539 0.0039073
7 1 11.7289 4.5671802 7.23205 -0.112098 -0.0295579 -0.247056
8 1 1.19072 8.2080698 11.7463999 0.0011273 0.0134011 0.0106571
9 1 4.6571102 3.1637001 12.2041998 -0.0368551 -0.0218679 0.0262343
10 1 3.6336401 11.5998001 7.6026101 0.0302178 -0.0381593 -0.010781
11 1 3.46523 7.6251898 2.03181 -0.010817 -0.001669 -0.0031188
12 1 0.513319 5.2947698 4.02946 -0.008476 -0.014784 -0.0069054
13 1 0.385525 12.2516003 9.35781 -0.0061538 0.0041165 0.0274542
14 1 8.4072304 10.5637999 7.6729698 -0.0117242 0.0134705 -0.0109805
15 1 7.4555402 10.2637997 3.2880499 -0.0142029 0.0355014 -0.0227722
16 1 11.6926003 1.80241 0.693929 -0.0314082 -0.0040794 0.0098882
17 1 7.6159001 4.2612901 10.6110001 0.0436854 0.042121 0.021818
18 1 7.7185102 4.76473 6.4489999 -0.005692 0.0300825 -0.0330351
19 1 11.1134996 8.6008797 13.3393002 -0.0137189 0.0160032 -0.0026513
20 1 1.0777299 10.5685997 4.50877 -0.0133468 -0.0232824 0.0184901
21 1 2.8244901 11.5489998 1.34736 -0.0014729 -0.0395178 0.0021353
22 1 6.6947298 12.9981004 0.634256 -0.01259 0.0110137 -0.0046412
23 1 9.6510496 11.9053002 11.6721001 -0.0291294 0.0243902 -0.116587
24 1 10.2201996 5.4786401 1.5727 -0.0181609 -0.0069458 0.01938
25 1 2.3606901 2.95607 9.2319203 0.0425746 -0.0496773 -0.0177394
26 1 7.6326099 0.911808 7.93423 -0.0342562 -0.0060888 -0.0961872
27 1 5.10918 2.81144 2.5225101 0.040949 0.0686315 0.0253774
28 1 1.95609 0.575486 5.2667499 0.0956178 -0.0084912 -0.0395012
29 1 1.3132 6.79811 7.8936902 -0.0628466 -0.0100464 0.0133092
30 1 10.9199 8.0609999 5.9798598 -0.152534 0.0137519 0.143009
31 1 11.3267002 2.0516701 10.7355004 -0.0148278 9.2143297e-04 -0.0414481
32 1 8.3702202 13.6749001 4.1162901 0.0222222 0.0504578 0.0092136
33 2 3.3575499 0.810068 1.56892 -0.0500828 -0.0401855 -0.0289645
34 2 5.2049398 3.6842301 8.8294602 0.0382228 0.0246593 -0.0147042
35 2 6.3978 12.5018997 9.3816996 -0.0584811 -0.110045 0.0658983
36 2 12.4904003 12.3606005 12.4419003 0.0417861 0.0150831 0.0078085
37 2 13.7243996 7.6487799 1.06353 0.0511686 -0.0941191 -0.0398948
38 2 0.920891 3.12431 6.3477898 -0.0136541 0.0456011 0.0147565
39 2 10.6001997 2.14463 5.1723099 -0.0325411 0.0177918 -0.0023728
40 2 13.0071001 9.5545998 8.2374201 -0.016736 -0.026526 -0.0142799
41 2 8.3187399 8.08708 1.40062 0.0331544 -0.0117923 -0.0195883
42 2 9.844 5.6307202 12.4043999 -0.0098969 0.0043546 -0.0836014
43 2 7.8105302 3.78032 3.32565 0.0558363 -0.0065604 0.0265249
44 2 4.2115002 9.6873598 12.96 -0.0022598 -0.018475 -7.6226197e-04
45 2 8.61693 7.5158201 7.95046 0.0169901 -0.0401176 0.0668856
46 2 10.2254 11.3065996 5.0283098 -0.0013726 -0.0149629 0.0047868
47 2 5.3199 8.5706501 8.1814404 0.0596492 0.0029214 0.0097023
48 2 5.3206902 13.2005997 4.4501 -0.0162934 1.90494e-04 -0.0030298
49 2 12.6836996 10.2947998 1.8980402 -0.0227567 0.0931979 0.0094092
50 2 2.4814799 9.2188501 9.1371803 -0.0210287 0.0359399 0.0309176
51 2 7.5918598 2.42887 13.3520002 -0.0049554 0.0032377 0.0045412
52 2 9.2132101 3.15695 8.4274502 0.13953 0.0722656 0.0188376
53 2 4.2507301 0.86756 7.6521902 -0.0022584 0.0232824 -0.0115369
54 2 10.8268004 5.18643 4.3382602 0.0224754 0.0252855 0.0912856
55 2 3.58511 8.32549 5.5984302 -0.0345481 -0.0023252 -0.0269431
56 2 2.86127 5.7813902 10.6147003 -0.0062126 -0.0100897 -0.0029234
57 2 13.672 0.825691 2.6800399 0.0313265 -0.0191749 0.0322696
58 2 6.0960302 5.7834802 1.59428 -0.0274539 -0.0016144 -0.0156715
59 2 9.4450798 11.2962999 0.791859 -0.012934 -0.0293389 0.105818
60 2 3.1866901 12.1118002 10.7990999 -0.0026288 0.0079581 -5.8019901e-04
61 2 13.3429003 3.92724 9.3216696 0.0402336 0.0105037 0.192556
62 2 12.8865996 8.0355196 4.1046901 0.150815 3.5622201e-05 -0.117357
63 2 2.87306 4.8511 0.403423 -0.0133985 0.0085926 0.0128278
64 2 7.85875 7.98314 5.0569501 -6.38412e-04 -0.0440979 -0.0087327
