ITEM: TIMESTEP
48000
ITEM: NUMBER OF ATOMS
64
ITEM: BOX BOUNDS pp pp pp
0.4157874 13.6002131
0.4157874 13.6002131
0.4157874 13.6002131
ITEM: ATOMS id type x y z fx fy fz
1 1 3.10904 4.6486802 9.7466297 -0.0301932 0.130372 -0.0321124
2 1 11.0057001 13.3456001 7.8202501 -0.0183257 0.0555313 -0.0145244
3 1 12.5133 3.93273 9.8270703 0.0169295 0.0195086 0.0047602
4 1 9.8161602 6.0699501 1.3377301 0.0118763 0.0043474 0.0076459
5 1 3.12852 8.4586201 8.7278996 -0.0283926 -0.014884 0.0903459
6 1 12.3091002 8.4770699 9.4393797 0.0111912 -0.053281 0.105465
7 1 13.0833998 6.3024502 5.97857 0.024553 0.0564425 0.115307
8 1 1.7384 1.24535 8.6816902 -0.0942678 -0.034664 -0.0144302
9 1 5.8873302 13.2280998 11.6202002 -0.0185674 -0.0121607 -0.0238932
10 1 3.13551 2.5100901 13.2272997 -0.0330876 0.0518985 0.015376
11 1 8.2583304 7.2184601 5.0063801 0.0750407 -0.0154588 -0.0059952
12 1 4.7606702 7.0966001 4.8181701 -0.093228 0.105807 0.0063103
13 1 10.8971004 2.6294501 12.8830996 -0.0023124 0.0147898 0.053549
14 1 4.93785 1.95139 7.1914201 -0.0336219 0.0729868 0.0206701
15 1 7.1682301 12.5698004 6.7898798 0.0672477 -0.10519 -0.0330647
16 1 8.8469602 3.8724402 9.2292299 -0.0102817 -3.1121898e-04 -1.81117e-04
17 1 1.20812 3.6640601 3.92117 0.0055886 0.05271 -0.0474768
18 1 8.8317004 11.3765001 10.3986998 0.0226859 -0.0252836 0.0042525
19 1 3.18361 6.25001 1.20532 0.0146847 0.0036555 -0.0241925
20 1 2.1905601 9.8850098 5.7255302 -0.0209484 -0.0467254 -0.0656273
21 1 8.0289803 7.47508 11.4326 -0.0203849 0.0145532 0.0185794
22 1 4.4028301 11.7971001 3.8899602 0.0866718 0.0625188 -0.0540285
23 1 9.4273501 1.24282 3.0367 -0.114533 -0.0215129 0.016479
24 1 4.0152602 9.8135596 12.7879 -0.0099609 -0.0165937 -0.0107722
25 1 13.3436003 8.7392597 1.06143 0.0121589 -0.0282178 0.002646
26 1 0.586098 0.449587 5.2938199 -0.0292715 -0.0147214 0.0620533
27 1 5.0111599 3.7781501 3.99108 0.0184314 -0.0818944 -0.0488304
28 1 8.8958102 10.5661001 2.5734401 -0.054616 0.0101014 -0.0175077
29 1 6.9187298 3.1573401 0.606819 -0.0552106 -0.0487573 -0.152788
30 1 6.3097201 6.96106 8.2642603 0.0325449 -0.0153777 -0.0059452
31 1 11.6961003 11.9833002 0.656516 -0.0039899 0.0375288 -0.02064
32 1 11.9663 10.1849003 6.4744902 -0.0465771 0.0353304 -0.0495071
33 2 3.93356 2.0260799 10.3308001 0.107766 -0.0924136 0.0503638
34 2 10.6251002 0.661916 10.7018004 0.0227734 -0.0038837 0.0137158
35 2 3.67923 12.8554002 0.481134 -0.0368573 -0.0441312 0.0234815
36 2 11.6998997 4.9958602 3.8037 -0.0673695 -0.0180708 -0.0584582
37 2 1.06941 11.5300999 8.0848799 -0.0380721 -0.0119333 -0.0056604
38 2 10.5101996 5.7705498 7.3354802 -0.0389252 0.0043924 0.022475
39 2 7.7503 0.982647 9.2378597 -0.0101842 0.0044502 0.0204476
40 2 3.6396201 11.1803999 10.0172005 -0.0861868 0.0811729 0.0206525
41 2 4.0696201 11.9271002 6.9839802 0.0239665 0.0301042 -0.0132241
42 2 10.3518 9.2099304 12.5499001 0.0142168 0.0152715 0.0094592
43 2 8.5380497 13.1072998 13.1275997 0.0818877 0.04855 2.9712902e-04
44 2 4.6763902 6.95851 11.1557999 0.0773099 0.0025768 -1.90004e-04
45 2 12.2159996 1.6150301 2.81158 0.114052 0.0127331 -0.0268242
46 2 0.5692441 0.684116 12.4656 -4.8142901e-04 0.0410052 -4.47298e-04
47 2 10.6913004 6.0041299 11.2386999 0.0097429 -0.0100301 0.0028811
48 2 2.97821 1.32209 3.8227899 0.064651 -0.0103434 -0.0246624
49 2 1.72015 7.1824098 11.4552002 -0.0726117 0.0135744 0.0098083
50 2 8.0189104 4.0039902 2.99648 0.0767326 0.056599 0.155757
51 2 13.4028998 11.2234001 3.7440901 -0.0221079 -0.0585939 -0.0518297
52 2 6.6268502 9.8887196 5.2769799 -0.0508957 -0.0018262 -0.0749281
53 2 12.5127001 3.08566 6.92835 0.0160805 -0.0201129 -0.0336977
54 2 1.73035 6.86729 3.79456 0.021349 0.005325 -0.0228802
55 2 6.16116 9.8226805 10.3992005 0.0867509 -0.0527318 0.0175272
56 2 8.3238096 2.26541 6.1250401 3.9513e-04 0.0011589 0.001842
57 2 2.92836 9.56596 2.5653 -0.0052334 -0.0236678 -0.0200497
58 2 2.99729 4.6689201 6.3231101 6.6480098e-04 0.0010712 0.0083012
59 2 6.5028 6.7306099 2.12413 -0.0068403 0.004294 0.0011952
60 2 6.35144 11.3857002 0.982792 -0.031712 -0.0601128 0.0355754
61 2 0.590894 10.8818998 11.4087 -0.0088645 -0.0382023 0.0063186
62 2 12.9972 4.91326 0.5124761 0.0048466 0.0048534 0.0056616
63 2 8.1843996 9.6424198 7.8000498 0.0470248 -0.0131476 0.0526653
64 2 10.6793003 8.91603 4.2017899 0.0242976 -0.0609784 -0.0274964
