ITEM: TIMESTEP
102000
ITEM: NUMBER OF ATOMS
64
ITEM: BOX BOUNDS pp pp pp
0.4063864 13.6096134
0.4063864 13.6096134
0.4063864 13.6096134
ITEM: ATOMS id type x y z fx fy fz
1 1 3.38202 7.4253702 7.3655501 -0.0309621 -0.039281 0.0434282
2 1 12.0622997 0.83048 5.3963599 0.0156738 0.060986 0.033338
3 1 10.3549996 4.99863 11.7848997 0.0191518 -0.0288052 -0.0073498
4 1 1.21119 12.4902001 13.1478005 -0.171414 0.0632646 -0.0021368
5 1 13.4483004 4.1128502 1.30482 -0.0852292 2.09185e-04 -0.0814437
6 1 9.0818901 8.9532004 9.10742 0.0111041 0.0043897 -0.0162087
7 1 8.82059 3.18171 5.2060299 -0.0255341 -0.0164159 8.9141694e-04
8 1 3.1400499 8.9702102 12.9811002 -0.0555352 -0.0086574 -0.0694403
9 1 3.47455 5.0633798 13.1114998 -0.0272294 0.0408055 -0.0048339
10 1 7.1150599 9.7451802 5.13941 0.026934 0.239914 -0.0167435
11 1 6.5289603 9.1989899 12.5382996 0.0896666 0.0585628 -0.0340715
12 1 1.4942 7.51754 2.6022799 0.0043076 -0.119308 -0.0940945
13 1 3.1182499 2.12922 5.4484701 0.0128475 -0.0531503 0.0667239
14 1 10.4935999 13.4751997 9.6816197 0.0766637 -0.0486066 -0.0141301
15 1 9.6506996 8.1715899 2.6419401 0.0185585 1.6244101e-04 -0.0268152
16 1 12.4041004 10.9377004 3.68833 -0.0130387 -0.0515746 0.0048778
17 1 5.89947 3.8012901 10.1226997 0.0012217 0.0576994 -0.0438139
18 1 7.1524901 6.5244599 5.69978 0.0226997 -0.196105 0.0799699
19 1 11.6550999 9.6097203 11.9765998 -0.002917 -0.0099338 0.0126008
20 1 2.65972 11.1056004 6.3620601 0.0069082 0.0033746 0.0087558
21 1 4.1894999 10.8682004 2.7915299 -0.0094522 -0.0162787 0.0058075
22 1 8.7379599 12.9129 3.8596302 -2.0207798e-04 -0.0180366 -0.0326674
23 1 8.4661398 1.83919 12.9575996 0.0032821 -0.0337216 0.0185173
24 1 7.83913 4.7973299 2.32724 -0.0279677 0.046775 -0.107447
25 1 2.95474 1.76992 10.5358 -0.0460253 5.0649295e-04 -0.0015612
26 1 5.8286 12.8846998 10.6929999 0.0885671 -0.0310561 0.0066228
27 1 4.1002498 5.6290303 3.89096 0.034932 -0.0567385 0.0110504
28 1 4.3118801 1.0125901 1.42662 0.0134904 0.0858894 0.0161561
29 1 11.5292998 5.6044698 6.3877401 -0.0287903 0.0408949 0.0044778
30 1 13.1908999 9.3358803 8.5060101 -0.0073952 0.0024714 -0.0368957
31 1 13.1788998 4.2452998 9.5192299 0.0285158 0.013144 -0.144773
32 1 7.28336 13.5506001 7.3689399 0.0635628 0.0402201 -0.0439185
33 2 6.84338 12.1596003 0.700243 0.0135052 0.0103602 0.0142023
34 2 3.40288 4.2937598 7.5113902 0.0036886 0.0116238 0.0271515
35 2 6.58847 10.7872 8.0949497 -0.0129899 -0.0436484 0.0188683
36 2 10.6869002 11.4523001 1.07087 -0.0050966 0.0025242 0.0167334
37 2 13.5632 2.5688701 11.7110005 -0.0169798 -0.0794166 0.138106
38 2 0.606917 4.1645999 5.2842698 0.0469937 -0.0457411 0.0018089
39 2 10.9259996 2.79812 2.58827 -0.0279783 -0.0244497 0.0120171
40 2 10.4083004 10.9859 6.24471 0.0158265 0.149286 0.023718
41 2 8.76686 7.23838 12.7873001 0.0020892 0.0255386 0.0281431
42 2 12.5112 6.9905 13.4747 4.90267e-04 5.2477698e-05 -0.0081118
43 2 5.6293898 2.87391 3.37254 0.0195501 0.0120033 0.0336669
44 2 2.3478501 10.5541001 10.0811005 0.0118132 0.0096615 0.0115127
45 2 9.1111002 5.1414499 8.1335096 -0.0544747 0.0714527 0.0277032
46 2 0.855471 1.6080001 7.9533 0.0058156 0.0025207 -0.0084384
47 2 6.6781202 7.0212698 9.1258001 -0.0293298 -0.0021126 -0.0022699
48 2 4.9520798 12.8387003 5.2230101 0.0312967 -0.0196644 -0.0435996
49 2 0.996955 10.0067997 1.5044301 -0.0437722 0.118955 -0.0399919
50 2 12.1429005 6.91113 9.9641104 -0.0455143 0.0522948 0.0198812
51 2 5.9477 3.5516901 13.1169996 0.0419085 -0.034164 0.0377159
52 2 3.2671499 7.2854099 10.3395996 -1.31457e-04 -0.0159773 0.0395662
53 2 4.4596901 0.712875 8.0965204 -0.0535539 0.0172252 0.0201071
54 2 11.9259996 5.75983 3.2086201 -0.0445423 0.052084 0.0302584
55 2 4.3726001 8.5975704 4.9653502 -0.0025499 0.0240901 -0.0833203
56 2 10.4509001 2.6157201 7.47086 0.110422 -0.0952459 0.0547819
57 2 1.65614 12.9089004 4.0230598 0.0047231 0.0030322 -0.0160263
58 2 5.5885802 7.1714602 1.4059301 -0.0170376 -0.0193694 0.0188618
59 2 8.8758498 11.3607998 11.3439999 -0.0123626 -0.0101937 -0.0076701
60 2 3.91324 12.0494003 12.7673998 0.103672 -0.101932 -0.0406459
61 2 8.2150698 1.98783 9.89641 -0.0479398 0.0223895 -1.59397e-04
62 2 0.583107 7.5012799 5.19765 -0.04307 0.0243583 0.19376
63 2 2.3898699 3.1394301 2.87038 0.0695669 -0.0093351 -0.0447769
64 2 9.9088298 8.2220001 5.7181702 -0.0304331 -0.139804 -0.0084255
