ITEM: TIMESTEP
44000
ITEM: NUMBER OF ATOMS
64
ITEM: BOX BOUNDS pp pp pp
0.4205556 13.5954438
0.4205556 13.5954438
0.4205556 13.5954438
ITEM: ATOMS id type x y z fx fy fz
1 1 4.1697002 4.7121001 10.3542996 0.0676156 0.04546 -0.0697022
2 1 10.9797002 1.6758501 6.60042 0.0457113 -0.0397495 -0.0315502
3 1 12.3170004 2.2972701 10.4329005 -0.112577 -0.0681157 -0.118762
4 1 9.9245796 4.4382601 2.70028 0.0196572 0.0929865 -0.01773
5 1 1.0853601 8.5206099 8.4925699 0.0343071 0.0093403 0.0908437
6 1 11.0197001 6.4146299 8.4772101 -0.0420325 -0.0583185 0.037703
7 1 3.27249 6.0472002 6.60812 -0.0012214 -0.0150388 0.0231887
8 1 1.0230401 12.3514996 9.1787901 0.0055879 0.0088429 0.0076431
9 1 4.5148001 1.2497701 12.0195999 -0.022102 0.0045702 0.0464188
10 1 1.48886 3.7030499 12.2744999 0.0754164 0.0675374 0.175657
11 1 8.4422598 7.1287899 6.11232 -0.0087619 0.003303 -0.0530521
12 1 5.1649399 8.9042702 4.0001001 0.0111583 2.14344e-04 0.0024279
13 1 9.1534004 1.99045 12.5960999 -0.0109945 -0.0733761 0.0260109
14 1 4.3775401 1.84381 7.4277201 0.056067 0.0285955 0.0453437
15 1 8.4923296 12.0892 8.2089901 0.0120104 0.0113248 0.0087802
16 1 8.87982 3.27353 8.9075298 -0.0550307 0.0486278 0.0789992
17 1 1.01562 3.8169701 3.1431799 -0.0503037 0.0418392 0.0342996
18 1 11.3107004 9.5695896 10.3086004 -0.0433813 0.0191128 0.0047334
19 1 2.2851801 8.2539997 12.3214998 0.0337668 -0.0728012 0.0082884
20 1 1.63641 9.7672796 5.2740502 0.0772491 0.0143688 -0.0233763
21 1 7.6697002 7.0973201 11.8317004 -0.0200793 0.0099335 -0.0130536
22 1 5.3790798 12.8427 3.6818199 -0.0020084 0.0100295 0.0016098
23 1 8.9927598 1.18186 3.2729499 -0.0470125 -0.0921693 0.0145289
24 1 5.6236401 10.9574004 11.8953 -0.0269347 -0.0451677 0.0110915
25 1 11.6015997 7.5209699 0.845533 6.5348597e-05 -0.0182762 -0.0587651
26 1 1.88147 0.466712 5.4061399 -0.0653912 -0.0276512 -0.0490657
27 1 6.4844399 3.99518 5.0515399 0.0596192 0.0207013 0.0046195
28 1 8.0500898 9.5076504 1.5649801 0.008556 -0.0328542 0.0081559
29 1 4.84649 5.4714799 1.1799001 -0.0155483 0.0236494 -0.173951
30 1 5.84727 9.4126501 8.4275599 0.0185712 0.0760005 -0.0910497
31 1 12.1306 12.8509998 0.829805 -0.0935922 -0.0290661 0.0481766
32 1 11.7359 9.8851404 3.6905401 -0.0717206 0.0784943 -0.0199747
33 2 2.4265001 1.98754 9.8934202 -0.0150576 0.0130091 -0.0246363
34 2 11.0277996 12.7346001 10.8697996 -0.0021447 -0.0115876 0.0038815
35 2 4.49436 5.93601 3.8980602 -0.0395035 0.0579557 0.098803
36 2 10.0495005 4.4624 6.1926799 -0.0157125 0.0301017 -0.021862
37 2 11.8737002 12.0965004 5.89526 0.0213184 -0.0752243 0.06134
38 2 13.2320995 6.5542698 6.5700302 0.0470292 -0.0445756 -0.0693832
39 2 7.6271801 13.0643997 11.1225996 -0.0158114 0.0660659 -0.0784974
40 2 4.7275 12.8346005 9.4766598 0.0108371 -0.0359293 0.0194929
41 2 4.2822099 11.6542998 6.64042 -0.0113748 -0.0091086 -0.043233
42 2 9.5100804 4.8502898 12.5565005 0.0060002 0.0803844 0.0019974
43 2 7.52318 12.3683996 0.889496 -0.008576 0.0352323 0.0512305
44 2 4.9675798 7.77312 10.5630999 -0.0732822 -0.0289776 0.117593
45 2 12.0489998 0.88923 3.7002499 0.026662 0.0685493 -0.0542787
46 2 1.1619999 13.5635004 12.4153004 0.0966044 0.056308 -0.0768927
47 2 6.4850898 3.48123 11.9504996 0.0257431 0.03303 -0.0053347
48 2 3.6661501 3.1070099 4.74579 -0.0505041 -0.0425801 0.0045354
49 2 13.1717997 6.3576198 10.5099001 0.0347795 7.4415498e-05 0.042166
50 2 6.48907 3.26213 2.0593901 0.055588 -0.0682592 0.02324
51 2 2.88791 2.13131 1.6819201 0.0455589 -0.0343175 -0.0486984
52 2 7.6069699 10.0030003 5.8014202 -0.0111467 0.0292716 -0.0013035
53 2 0.639078 2.83827 7.0162001 0.0121615 0.0086765 0.0056867
54 2 0.999626 7.2962198 2.76314 0.112377 0.0157525 -0.0371554
55 2 8.4580498 10.1316996 11.1829004 0.0046509 -0.0480645 -2.0989502e-04
56 2 7.8215599 1.73648 6.5903301 -0.0136343 -0.0418589 -0.0251832
57 2 2.24522 11.1357002 1.57705 -0.0011949 -0.0044026 0.0031763
58 2 6.2989302 6.4263201 8.1793604 0.0069679 -0.0609147 -0.0309798
59 2 7.4721198 6.55299 3.0185399 0.016046 0.0063705 -0.004371
60 2 4.9303298 8.6221104 0.621104 0.0308101 -0.0074435 0.0313764
61 2 0.535076 10.4654999 11.7796002 -0.0233835 0.0646862 -0.0025802
62 2 11.8937998 3.1235001 13.4417 0.0307918 -0.0302168 0.0401165
63 2 11.3227997 9.0813799 7.0803499 -0.0077033 0.0234842 -0.0093771
64 2 11.4942999 7.0008001 3.8171201 -0.131563 -0.0878388 0.0708536
