ITEM: TIMESTEP
98000
ITEM: NUMBER OF ATOMS
64
ITEM: BOX BOUNDS pp pp pp
0.2477053 13.7682944
0.2477053 13.7682944
0.2477053 13.7682944
ITEM: ATOMS id type x y z fx fy fz
1 1 2.96788 7.9943 8.1941099 0.0425015 -0.0748779 -0.0016026
2 1 11.2969999 13.2981005 7.0974498 0.100774 0.0202128 -0.0549662
3 1 10.7312002 5.12678 9.7073097 -0.0324219 -0.0896283 0.123578
4 1 0.558136 11.6831999 0.269539 0.0156225 -0.111392 -0.0655403
5 1 1.60789 2.9503902 3.9228202 -0.0012416 -0.0382411 0.027046
6 1 7.8018298 10.0841999 11.0978003 -0.127936 -0.144927 -0.150604
7 1 9.1036301 3.0220101 2.1854401 0.0408864 -0.0023193 0.0476948
8 1 3.99138 9.8129597 12.2788 0.0209806 -0.0070343 0.0108525
9 1 3.1858001 6.04985 12.3788004 0.0028349 -0.0043053 0.0166048
10 1 6.9031502 11.7256003 6.8687302 0.0844092 -0.0024127 3.56778e-04
11 1 7.3704701 8.8267298 1.15817 0.105762 0.0268522 -0.0122893
12 1 0.581801 6.9017902 4.0926499 0.0417884 -0.0220121 0.0441745
13 1 4.2461701 0.301936 7.2771702 -0.146311 0.0489185 -0.0229631
14 1 10.1624003 1.0401 10.6268997 0.0089524 -0.0106367 0.203234
15 1 11.8859998 7.5247102 0.270035 0.0290354 -0.0375883 0.0148263
16 1 11.0534 9.3639298 3.32725 0.0233526 -0.0098595 -0.039036
17 1 6.14081 4.5290599 10.1868 -0.0867916 0.0288866 -0.0600034
18 1 7.1870198 8.2486296 6.3663402 0.0183769 -0.0343465 -0.0038702
19 1 11.0186996 10.2195997 9.1403198 0.0053892 0.0168005 0.0110239
20 1 1.41277 11.1111002 8.0625601 -0.0323539 0.0626682 -0.0256448
21 1 2.5671001 10.9027996 3.0815201 0.0512437 -0.0443134 0.0396329
22 1 9.0129604 13.4179001 4.2349501 0.0289221 0.0073047 -0.0119979
23 1 11.6740999 3.58692 13.1302004 -0.0090006 -0.0266879 0.021781
24 1 8.0957804 5.40065 13.2468996 -0.0411428 0.121252 0.103777
25 1 2.9931902 13.1675997 10.9873 -0.0493335 0.0330395 0.0010694
26 1 6.5019398 0.836017 11.3508997 0.0282031 0.0263637 0.0802717
27 1 4.19209 5.4040899 2.99194 0.0128343 0.0041293 -0.0333628
28 1 5.70502 1.72532 2.27228 -0.0197449 -0.0261183 0.0201273
29 1 10.9772998 3.66762 5.89878 -0.0109778 -0.0594577 0.02331
30 1 12.7082005 6.97227 7.6132798 0.0058018 0.1351 -0.0627587
31 1 0.855062 3.9379302 7.6560102 0.0313491 -0.0861508 0.0233043
32 1 6.61623 4.6472602 6.0359402 -0.0139408 -0.0150864 0.0014737
33 2 6.4012399 12.1072998 3.5715201 -0.0295998 -0.0091934 -0.0030838
34 2 3.4196801 5.3007798 6.6359802 0.0115627 -0.0181138 -0.0087161
35 2 5.5080199 12.1226997 9.7076597 0.01074 -0.0592269 -0.0288631
36 2 9.9129296 11.5522003 12.059 0.166154 0.0952163 0.0440074
37 2 12.7324 0.612481 0.629168 -0.0653171 0.115234 0.0086715
38 2 0.97056 0.880266 6.68816 -0.0051729 -0.0035055 0.0016217
39 2 12.1248999 1.5303 3.8658 -0.0186863 -0.0165049 0.0191258
40 2 9.9620896 9.9348602 5.93712 -0.0344325 0.0283666 0.0829853
41 2 9.6417599 7.57649 11.8442002 -0.0112467 0.0167458 -0.0350012
42 2 13.3917999 5.3120599 11.4412003 0.022182 0.0357564 -0.0207679
43 2 8.9913398 0.955784 13.2378998 -0.0265723 9.5773802e-04 0.106702
44 2 13.1387997 12.7735996 9.8151703 -0.0300535 0.0131158 0.0152199
45 2 8.67937 3.6637399 8.1165896 0.0138058 0.0099352 -0.0220127
46 2 2.6017699 3.3368499 10.9006004 0.0036904 -0.0098844 -0.0174445
47 2 6.2344799 7.4648199 11.9697 -0.0226358 0.003621 -0.0033214
48 2 6.6954599 1.67777 5.4127498 -0.0010588 -0.02781 -0.0301801
49 2 1.2653 8.1807699 1.5784101 0.010936 0.0358607 -0.061409
50 2 9.7019301 7.5524001 8.4917698 -0.039392 0.0388278 -0.0401474
51 2 5.1055002 3.0482099 13.0971003 0.0188402 0.0254177 -0.0211466
52 2 12.9294004 9.07652 11.3499003 0.0073038 0.008572 -0.0081786
53 2 6.5030198 1.56759 8.5462904 0.0282684 0.0313206 0.0049345
54 2 12.8022003 4.3931799 2.74334 -0.0186155 0.0128703 -0.0571049
55 2 3.8216601 7.8362499 4.7440801 -0.0108225 0.0378339 0.0151639
56 2 11.7361002 2.3052199 8.8199597 0.147921 0.124078 -0.164925
57 2 13.4132004 11.9868002 4.1945 -0.0173827 -0.0063942 0.0065994
58 2 4.60707 8.3301201 1.56004 -0.103717 -0.0206033 0.0015676
59 2 9.0259104 12.8732004 8.8013001 -0.143726 -0.147653 -0.0719193
60 2 6.79598 11.8450004 13.1103001 -0.0507814 0.033191 0.073705
61 2 8.4864998 3.43605 11.3648005 0.0992676 -0.135909 -0.0827905
62 2 11.2474003 6.26793 4.6208701 -0.0072513 0.0819311 0.0566873
63 2 2.10498 3.7491701 0.825176 -0.0052165 0.0105103 0.0114443
64 2 9.1882601 6.3572898 2.42433 -0.0268151 0.0113024 -0.0409212
