ITEM: TIMESTEP
88000
ITEM: NUMBER OF ATOMS
64
ITEM: BOX BOUNDS pp pp pp
0.4385067 13.5774937
0.4385067 13.5774937
0.4385067 13.5774937
ITEM: ATOMS id type x y z fx fy fz
1 1 13.5576 5.87005 9.59025 -0.120471 -0.047488 -0.0404584
2 1 11.2399998 3.3003399 7.6721101 0.147359 -0.0286993 0.0427669
3 1 7.5327301 6.4984498 8.2075005 0.07036 0.0522399 0.0840284
4 1 2.84754 7.76263 11.0721998 0.118055 0.123077 0.0722766
5 1 2.6840701 2.9372202 3.08881 0.0307519 -0.0031302 0.0259663
6 1 8.5171204 9.6415005 6.4016299 -0.031564 -0.0200372 0.125031
7 1 7.3550701 8.04951 1.9941602 0.0542864 0.0275056 -0.0101587
8 1 7.0624399 10.5172005 9.6926899 0.0088795 0.0402228 0.0103362
9 1 13.2712002 2.94538 0.673007 0.0028259 -0.121803 -0.0535237
10 1 7.3415899 12.7988005 4.3175402 -0.0142366 -0.017103 -0.0272994
11 1 9.8447504 8.8059597 11.6652003 0.0110643 0.0228677 0.0211878
12 1 0.793776 6.76649 3.6923101 0.0190301 0.0059802 0.0081931
13 1 2.8091901 11.9259996 12.9176998 -0.0028697 0.0014935 0.0078595
14 1 10.3880997 2.6453901 11.2677002 -0.0443283 0.0104968 0.0270558
15 1 12.2980003 6.2020798 0.653818 -0.368959 0.145942 0.0109415
16 1 3.70908 11.9132996 4.09234 0.0113223 0.0238339 -0.0642349
17 1 5.2243099 4.4597802 6.6545301 -0.0678881 -0.0581347 -0.053036
18 1 11.8884002 11.349 3.00653 0.0771232 -0.0027528 0.269156
19 1 0.899082 10.5471001 9.8684902 0.0620874 -0.059774 -0.136335
20 1 1.19937 13.0649996 6.1622801 -0.0689266 0.0361209 0.0469823
21 1 1.98825 8.4359999 6.7594199 0.011591 0.0683696 -0.0265124
22 1 7.26755 1.12461 7.9116102 0.0213326 0.0120781 -0.0043226
23 1 11.54 2.0301299 3.91169 -0.0978949 -0.124172 -0.0577473
24 1 5.8271599 4.8376899 0.516291 -0.0396275 0.0176306 -0.0090008
25 1 11.0718002 12.1596003 8.37782 -0.0181504 0.0185295 -0.0106129
26 1 3.6034301 4.4235401 10.5761996 0.0587219 -0.122688 0.0085752
27 1 4.5258699 6.5451799 3.56918 -0.0475244 -0.0026911 0.0223784
28 1 8.0207596 12.5436001 0.613561 0.0106207 0.0047161 -0.0075621
29 1 7.4744401 3.38816 3.48643 0.0120361 -2.4182301e-04 0.0165739
30 1 11.4546004 7.0799999 6.3933802 -0.0227047 -0.0148831 0.0089378
31 1 0.697776 1.53525 10.1814003 0.0428246 0.0396359 -0.0366382
32 1 5.5936098 0.591533 11.0999002 -0.031036 -4.2363501e-04 -3.8506502e-04
33 2 9.0786896 10.1258001 3.72719 0.0252664 0.0308604 -0.15505
34 2 10.5445004 6.4479599 9.98841 -0.0072388 -0.06276 -0.0206946
35 2 5.2280502 8.9269304 7.76615 -0.0139069 -0.052956 -0.0054808
36 2 12.9045 10.3883 6.5103698 0.0183926 0.0597152 -0.0951151
37 2 9.0127497 13.0291996 10.5022002 -0.0290801 0.0014972 0.0108204
38 2 6.17909 11.7104998 6.9576802 0.0391948 -0.0038683 -0.0564739
39 2 12.9959002 12.3418999 11.7195997 -0.0735931 0.0498362 0.124851
40 2 9.5343905 0.591295 6.1023302 0.0728189 -0.010467 -0.0117272
41 2 7.8141098 5.30094 11.3954001 0.045694 0.0460127 0.0358369
42 2 13.0914001 8.2839003 11.6613999 -0.023739 -0.0108302 -0.0211514
43 2 7.2291398 2.3843999 12.8306999 0.0702834 -0.0163312 -0.0264878
44 2 3.2917299 2.0948 12.7201004 -0.0288311 0.0073563 -0.0073258
45 2 7.03264 6.92167 5.2339301 0.0231077 -0.004052 -0.0065575
46 2 3.14029 6.3628302 8.3205795 0.0593782 -0.0681981 0.0204734
47 2 9.4166203 4.5062099 0.977478 -0.0012436 -0.0223338 -0.0218747
48 2 4.9249202 1.74829 4.7406001 0.0207645 -0.0020482 0.0586414
49 2 1.6955101 5.6652599 13.1287003 0.287413 -0.0713596 -0.0784556
50 2 11.5453997 9.08708 8.7005501 -0.0556845 -0.0283351 0.0919355
51 2 6.0810299 7.9670602 10.8888998 -0.0155242 -0.032546 0.007538
52 2 3.4231 12.0321999 8.1771698 -0.053771 -3.0281601e-04 0.0282212
53 2 6.7066598 3.69556 9.18781 -0.0483479 -0.0202593 -0.0040399
54 2 13.0228004 4.0871401 5.0398002 0.0560046 0.139356 0.0299202
55 2 1.4411301 2.7640901 7.2974801 0.0212259 -3.1408e-04 0.0496615
56 2 8.74294 3.6650701 6.51932 -0.16046 0.0475612 -0.0727459
57 2 5.7248998 10.8253002 12.6239996 -0.0012097 0.0016701 -0.0064931
58 2 5.5409599 9.6544199 4.0903201 0.0459607 -0.0411398 0.004577
59 2 5.3724399 1.09627 1.75458 -0.0040789 -0.0387584 0.0151742
60 2 1.92875 9.8631602 2.1724899 0.0010345 0.0034289 0.0078416
61 2 11.0278997 13.1252003 1.11655 -0.0786719 0.154025 -0.13858
62 2 10.3915997 6.0559001 3.4489401 0.0213399 0.0227225 0.0352171
63 2 1.00109 13.2410002 1.84444 0.0169288 0.0222671 0.0294318
64 2 11.9014998 9.2289801 1.24707 -0.0235172 -0.126168 -0.0923059
