ITEM: TIMESTEP
74000
ITEM: NUMBER OF ATOMS
64
ITEM: BOX BOUNDS pp pp pp
0.2461529 13.7698469
0.2461529 13.7698469
0.2461529 13.7698469
ITEM: ATOMS id type x y z fx fy fz
1 1 3.2637401 3.10917 7.06108 0.0468479 0.0292704 -0.0954588
2 1 1.61006 11.4433003 6.22297 -0.0037082 0.0093122 -0.0088609
3 1 12.5613003 5.7683401 11.2861004 0.0873624 -0.0339105 -0.0262791
4 1 1.71876 10.7083998 10.0647001 0.0302623 0.0408882 -0.0291011
5 1 2.6869099 3.4556701 10.5500002 0.0099102 -0.0039982 0.0644362
6 1 9.4566403 9.3612499 5.2930398 -0.0869177 0.13719 -0.0214185
7 1 8.5634899 4.8940202 6.13694 -0.0691853 0.0510014 -0.0434572
8 1 9.2076302 1.66643 8.96836 -0.0281892 -0.0284534 0.0257404
9 1 3.7220299 8.4990397 12.5256996 0.0271044 0.034372 0.111352
10 1 5.72965 13.2363997 13.4224997 -0.0072138 0.0308458 -0.0056403
11 1 6.2067299 10.3634997 9.5442 -0.0134536 0.0167841 0.0204141
12 1 13.4039002 5.4935298 3.9646202 0.0346334 0.0020646 0.0314933
13 1 2.4330499 1.28815 13.7405997 -0.119818 -0.0380782 -0.0634586
14 1 7.7105398 4.4070802 12.0405998 0.0236978 0.0392667 0.0071081
15 1 9.9046002 8.5883799 9.5555697 -0.074339 -0.0466174 0.0827914
16 1 5.60253 13.4380999 4.7463498 -0.084918 -0.0514436 -0.0597842
17 1 5.9498702 6.2569099 8.6332798 -0.0153777 -0.0437805 0.0448627
18 1 10.2150002 8.42659 2.0318601 0.0222414 -0.0056122 -0.0761298
19 1 0.373862 7.8349099 7.5901699 0.0129939 -0.0091879 0.0181361
20 1 13.0846005 11.3848 3.00946 0.0026856 -0.0035505 0.0360367
21 1 4.49439 8.6461001 6.11234 0.0417638 -0.0067059 0.0400475
22 1 11.4611998 11.4343996 8.6511002 0.0614652 0.126218 -0.045739
23 1 13.1440001 1.79099 3.1548901 -0.0089336 4.2403302e-04 0.0027914
24 1 3.26948 11.0312996 1.97134 0.0226856 0.033103 0.081156
25 1 12.3247996 10.6062002 13.0841999 -0.109542 -0.0143178 -0.0483864
26 1 6.34934 9.5087796 2.94973 0.0205431 0.0606908 0.0598005
27 1 5.70751 4.8987002 4.0013399 -0.0981359 -0.0810741 -0.041251
28 1 9.0009604 11.8902998 0.77705 0.016274 -0.0318176 -0.0593897
29 1 9.5591297 0.353992 5.29423 0.0516063 0.0247904 0.0039807
30 1 11.5452996 3.88036 7.3848801 0.0967124 0.0317035 0.0566774
31 1 11.3268995 1.05292 13.3294001 0.02482 0.019191 -0.0210812
32 1 4.2217202 13.4660998 8.3562203 0.009787 -0.0332838 0.0268682
33 2 7.10461 1.7615201 6.3097201 0.0265023 0.0825905 0.0834892
34 2 0.679121 0.627264 8.85641 0.0118715 -0.0061533 -0.006853
35 2 3.0520101 7.5468898 9.9668504 -0.0255377 -0.0402257 -0.132359
36 2 12.8306999 8.3494997 4.76013 -0.0387909 0.0362456 -0.03022
37 2 8.3754702 11.9720002 7.4190202 -2.84299e-04 -0.0122632 0.0104553
38 2 9.8154698 12.6072998 11.3811998 0.0095494 -0.0081565 -0.0224217
39 2 7.4509201 8.11234 11.3013001 -0.136853 0.0498547 -0.0106106
40 2 12.6622 13.4329005 5.4938698 -0.0034067 -0.0397067 0.0158444
41 2 8.4532805 3.1168201 3.6579199 -0.0048816 -0.0164586 -0.0152759
42 2 13.6437998 8.5656796 11.2400999 -0.0209163 -0.0288268 0.0022206
43 2 1.44547 3.92445 1.87589 0.0171845 -0.0060474 -0.0169601
44 2 6.1426201 6.1437702 0.91903 0.0059386 0.0121755 0.0064677
45 2 4.9189502 3.47893 12.8714 -0.0144412 -0.0044137 -0.0428012
46 2 1.2328 4.8438302 8.3341799 -0.0528548 0.062161 0.0160711
47 2 9.8660202 6.6064902 11.6710997 0.0427715 -0.0577446 0.126158
48 2 4.3712201 2.15628 2.04476 0.106532 0.0195501 0.131302
49 2 7.5281701 8.5316201 7.6121402 0.0202758 0.0028707 -0.0492598
50 2 10.7778998 7.6641202 7.03157 0.095739 -0.161484 0.0235224
51 2 5.93815 10.2384005 0.284982 -0.0072878 0.0260439 -0.125626
52 2 7.27144 7.2636099 4.3288202 0.101275 -0.0370202 0.0885004
53 2 9.1177597 5.3361702 9.0237799 -0.0067058 -0.0164554 -0.004233
54 2 0.390681 2.77723 6.13204 0.0355129 -0.0214207 -0.0650563
55 2 6.5302601 3.15627 9.6124697 -0.0305606 -0.0087746 -0.0355737
56 2 11.9159002 2.93644 10.3736 -0.012331 -0.022224 -0.0036697
57 2 1.6155401 10.8858996 13.1954002 0.0533035 0.0086197 -0.0673837
58 2 2.7431 6.1322999 5.2021799 0.0079188 -0.0456716 0.0235139
59 2 2.22714 13.6822005 3.4732399 -0.00133 -0.0252855 0.006942
60 2 2.2802501 9.0235796 4.2276302 -0.018143 0.0572987 -0.0531719
61 2 8.2628403 1.55864 13.0837002 -0.0056291 -0.0128983 0.0042664
62 2 10.5164004 5.731 3.3094201 -0.0360954 -0.0140479 0.022155
63 2 13.7636996 7.5777703 1.23694 -0.0102755 0.0103671 0.005294
64 2 7.9951802 12.2066002 3.43079 -0.0317147 -0.0377835 0.0470168
