ITEM: TIMESTEP
78000
ITEM: NUMBER OF ATOMS
64
ITEM: BOX BOUNDS pp pp pp
0.3521733 13.663827
0.3521733 13.663827
0.3521733 13.663827
ITEM: ATOMS id type x y z fx fy fz
1 1 2.7117701 4.06213 8.53615 0.108991 0.0879918 0.0730888
2 1 2.1275699 13.5279999 5.7139101 0.0320703 0.0256182 -0.0269547
3 1 13.4122 3.8180101 11.7945996 0.0124478 0.04183 -0.11326
4 1 3.6212101 9.1301699 9.9088802 -0.0073247 -0.113008 0.0079092
5 1 3.5158999 4.9594998 12.3034001 0.0384321 -0.0264549 -0.0171926
6 1 8.95255 10.9404002 5.00563 -0.0179006 0.0034912 0.0371396
7 1 8.5145102 5.1663799 5.91987 0.0101379 0.0267554 0.0054247
8 1 7.4279299 0.566424 10.0981998 0.0209769 0.0518601 0.0775854
9 1 0.769647 9.5293904 12.6370001 -0.0060957 -0.0293418 -0.0249941
10 1 5.3638702 1.0140899 13.3288002 -0.0054901 0.0231914 -0.0105806
11 1 8.1457596 9.8190804 9.1904697 0.105904 -0.086438 0.0678627
12 1 12.7645998 5.8831 1.24112 0.0247631 0.100278 0.0948099
13 1 1.20478 1.0456001 13.5509005 0.0625783 0.0795668 -0.0952429
14 1 8.5131502 4.3811898 2.3270199 0.022 0.0672575 -0.0309861
15 1 10.5801001 7.85879 11.4629002 -0.0115865 -0.0168839 0.0173395
16 1 5.84901 13.2300997 3.61371 0.107954 -0.0332204 0.0745763
17 1 7.7262502 6.0876098 9.5819302 0.0514948 -0.0536977 -0.0301205
18 1 9.8118201 8.9303198 2.25773 0.0379368 -0.0540183 -0.0334085
19 1 0.465668 8.2715597 7.42377 -0.0101856 -0.0803576 0.0045695
20 1 0.599725 12.0131998 2.4725201 0.0045712 -0.171097 0.139376
21 1 5.1816101 8.97789 5.2472301 0.0102437 0.0212298 0.0544657
22 1 13.3219996 11.7586003 8.01087 -0.0047008 0.0547251 -0.0164157
23 1 10.6850996 0.455634 2.72643 -0.0012487 0.0180751 0.0173729
24 1 4.0981598 10.7546997 13.4914999 0.0310503 0.048138 -0.0545803
25 1 11.2193003 11.5264998 11.5960999 -0.0011588 0.0492814 -0.0122262
26 1 6.5717201 7.9320402 0.875256 -0.0303691 -0.0222547 0.0803892
27 1 4.3074799 5.49475 4.24193 -0.0175528 -0.0314706 0.0011026
28 1 8.5060797 11.9848004 0.59386 -0.0815892 -0.0039848 -0.0049368
29 1 8.3371802 0.625871 6.86019 0.0248459 0.0411282 -0.11566
30 1 12.3990002 2.84198 6.75908 -0.16921 -0.0997221 0.0408995
31 1 10.6490002 1.6941101 12.2552996 -0.0740953 0.0043431 0.0071497
32 1 4.0307202 12.4970999 9.8072005 -0.0267763 0.0603394 0.0777921
33 2 6.3825302 3.4405799 6.8739902 -0.0353313 -0.0202007 0.0199347
34 2 2.1076901 1.6967501 9.9720602 -0.0867852 -0.0827666 0.0608247
35 2 4.7892299 6.3257499 9.6136704 -0.051264 -0.0402814 0.0055626
36 2 1.18101 8.57234 2.1547599 -0.0150383 -0.0065616 0.0228026
37 2 6.2954703 11.4624996 7.97437 -0.101439 0.107133 -0.0865515
38 2 10.1709995 12.0254002 8.6185904 -0.0404914 -0.0275069 -0.0202803
39 2 6.64433 8.19067 11.3463001 -0.0117623 0.0591781 -0.0449623
40 2 11.3394003 13.2979002 5.6142903 -0.0160543 -0.029149 0.0603477
41 2 6.9789702 6.9682298 3.81813 -0.0017179 -0.0459347 -0.0945298
42 2 12.3690004 9.6190596 9.7530804 0.0147532 -0.0687596 -2.1351399e-04
43 2 1.37035 3.84724 2.35196 0.0576694 0.0130862 -0.0197234
44 2 3.51159 7.78789 13.2619 0.0020358 0.0178496 -0.006695
45 2 5.0732298 4.0182099 1.50553 0.016274 -0.0098262 0.0055333
46 2 1.4598 4.0287099 6.0502601 0.105872 0.0757566 -0.192321
47 2 10.6918001 5.05445 12.7159996 -0.0804393 -0.0104584 -0.0661993
48 2 4.4691201 1.0872101 7.7509499 -7.0356698e-04 0.025596 -0.127971
49 2 7.96376 8.1868 6.2980399 -0.0029806 0.0704991 0.0806605
50 2 10.5797997 6.9916 7.3189201 0.0469071 -0.0015503 0.0387874
51 2 6.4515 11.6857004 11.6610003 -0.0348151 -0.068896 0.0288539
52 2 1.68285 10.0937004 5.3909998 0.0064875 0.0366832 -0.0065442
53 2 7.5768299 2.9357 12.1731997 0.0244781 0.0079888 0.0171602
54 2 13.3028002 1.53292 3.797 0.032923 -0.0129404 0.0188012
55 2 4.98058 2.54246 10.3333998 0.0420027 0.0437191 0.0590965
56 2 12.1785002 0.757636 9.5314598 0.0194617 0.0714898 0.0375346
57 2 1.1766501 12.1112003 10.9455004 -0.0106491 -0.0177305 0.0208928
58 2 3.2211399 6.96244 6.9035002 0.005963 0.0011384 -0.0145593
59 2 3.40428 0.807978 2.5918901 -0.135127 0.0339956 -0.0534657
60 2 3.8221801 10.2658005 3.0032201 -0.162158 0.0193802 0.0336038
61 2 7.9583102 1.5644601 1.99294 -0.0308608 -0.0688744 -0.026453
62 2 11.1678 5.2042098 4.5549002 0.0323612 -0.0149046 -0.033591
63 2 11.6435004 3.0443699 1.49059 0.0021506 -0.015713 0.0173536
64 2 6.6463499 10.5002003 2.72309 0.167163 -0.0245906 -0.0259844
