ITEM: TIMESTEP
94000
ITEM: NUMBER OF ATOMS
64
ITEM: BOX BOUNDS pp pp pp
0.349005 13.6669951
0.349005 13.6669951
0.349005 13.6669951
ITEM: ATOMS id type x y z fx fy fz
1 1 1.4549101 7.3326802 8.0495701 0.0358506 -0.0083745 0.0441128
2 1 12.7371998 1.00266 6.8462 0.0320252 0.0301668 -0.0388079
3 1 8.5739203 4.86481 9.5640497 0.0666725 -0.0631037 -0.0407877
4 1 2.05901 8.3893099 0.691598 0.068585 0.0010043 -0.026006
5 1 1.72216 2.98105 4.2899199 0.0689588 0.0206951 -0.0196961
6 1 7.6401301 10.2017002 7.57442 -0.012077 0.104874 -0.0074548
7 1 6.89362 6.7539802 5.4977799 -0.0159287 0.144226 -0.104324
8 1 4.9923602 9.2706299 11.8515998 0.101844 -0.0819049 0.097301
9 1 3.2776799 3.2114301 13.1112003 -0.0174046 0.0181627 -0.0050109
10 1 5.74401 12.5671997 5.1037598 0.0020008 -5.2019e-05 -0.0119299
11 1 9.1764898 10.0333004 13.3003998 0.0232226 0.0507304 -0.0281973
12 1 0.513451 6.88964 4.6166101 0.012224 0.0236941 -0.0713705
13 1 2.1294 1.04388 9.85009 -0.0737309 -0.0079976 0.0745143
14 1 9.4511996 13.0756998 10.1146002 -0.0402895 -0.024818 0.0061895
15 1 11.3195 5.78155 13.5874005 0.0483565 0.053227 0.0136875
16 1 13.4236002 11.3186998 1.87911 -0.0144015 0.0363553 0.0115413
17 1 5.14183 5.1751599 8.0559101 0.0262546 0.0783279 0.0206902
18 1 9.9017296 10.8284998 4.4306503 -0.0083242 -0.0588709 0.0255288
19 1 12.7167998 10.0367003 10.4577999 0.0150705 -0.0235298 0.0122259
20 1 13.2736998 10.7763005 6.5797301 0.0037096 -0.0372828 -0.0052955
21 1 3.3944399 9.2874203 4.7094999 0.0209373 0.0596108 -0.0211724
22 1 8.8052597 1.6442601 5.8343301 0.0664781 0.01115 0.013871
23 1 10.1764002 0.561548 2.7183199 0.0104211 0.0807613 0.020492
24 1 8.0816698 6.8137298 1.04975 -0.00635 -0.0420637 0.103518
25 1 12.3862 2.45045 13.2968998 0.0257353 -0.116615 0.0282027
26 1 6.1388798 2.0516801 10.3771 -0.0525608 0.0529992 0.107212
27 1 5.2474799 4.79981 3.24175 -0.012589 -0.0882667 -0.044025
28 1 6.7621598 2.14641 0.79158 0.0138357 -0.0095007 0.0308538
29 1 11.6325999 4.27881 5.4484 -0.0101043 -0.0315681 -0.0183841
30 1 10.9051 7.6803499 6.9373798 -0.0402441 0.0043341 0.0278664
31 1 12.8389998 4.4622598 10.3583002 0.0114485 0.006719 -0.0730609
32 1 4.1403599 1.99315 7.2109399 -0.0595435 -0.0257213 -0.065892
33 2 7.3490501 11.9139996 2.2202599 0.0703059 0.0174047 0.0053635
34 2 1.35667 3.7281599 7.1602001 -0.026622 0.004268 0.0144472
35 2 4.69488 8.30758 7.8459002 -0.0130434 0.0148751 -0.0044373
36 2 9.8088398 9.6307802 9.7006102 -0.0289795 0.0493517 -0.0133824
37 2 10.2470999 13.1447001 13.2957001 0.0078679 -0.0278 -0.105869
38 2 3.91765 12.5394001 8.0306797 0.0069156 -0.0692999 0.0100158
39 2 13.1625004 0.8027661 3.61535 -0.0352976 -0.0335236 -0.0042955
40 2 10.4085999 12.3605003 7.2267099 -0.0165707 -0.013624 -0.0080871
41 2 10.8084002 6.94553 10.7158003 0.0426741 -0.0404466 0.001331
42 2 1.36773 6.8797998 11.1885996 -0.025769 0.0060061 0.0239142
43 2 9.45679 3.69612 3.2311399 -0.0091808 -0.004561 -1.7541501e-04
44 2 12.1503 0.915675 9.7662001 0.0631782 -0.0124177 0.0664896
45 2 8.8910104 4.9580002 6.4204602 0.0490811 -0.0485891 0.0284134
46 2 2.92628 4.46733 9.7939396 -0.0344082 -0.0399821 0.0511811
47 2 7.7336798 6.8235102 11.5089998 -0.0471062 0.0637878 -0.0212942
48 2 6.2989102 3.1632099 5.78899 0.018307 0.0757836 -0.0572187
49 2 2.86637 6.4015799 2.6867399 -0.0706161 -0.0136426 -0.156639
50 2 7.7324 7.4137402 8.1410399 0.042146 -0.0594095 0.104366
51 2 5.4514499 5.6427102 13.6058998 -0.0416852 -0.0233068 -0.0190981
52 2 2.6789501 9.6388102 10.3360005 -0.125699 0.035302 -0.086224
53 2 7.1308198 0.794994 8.0790195 0.0145087 -0.0858349 -0.0731042
54 2 12.8060999 4.1185498 2.6312101 -0.0133724 0.0232468 -0.0269791
55 2 3.57161 6.4826002 5.40656 0.0537535 -0.0809561 0.201021
56 2 10.8267002 3.0172501 8.0261097 -0.0407383 0.0270106 0.0255458
57 2 4.3969102 11.1988001 2.2939701 0.0342618 -0.183684 -0.0110435
58 2 5.9410602 8.0642595 2.65023 -0.04254 0.0138194 0.0385484
59 2 6.8120599 11.2243004 10.7428999 0.0606639 0.0502181 -0.037713
60 2 0.529896 12.3772001 12.1149998 0.0019539 0.0133098 0.0107228
61 2 9.4251604 3.2774701 13.1596003 0.0029982 0.015412 -0.0129642
62 2 10.9235002 7.3610501 3.18083 -0.0028064 -0.0091976 0.003655
63 2 3.0488801 0.331608 2.5822699 -0.0895613 0.170594 0.0244836
64 2 12.5492001 8.7353096 13.6689997 -0.094702 0.0085176 -0.0273664
