ITEM: TIMESTEP
54000
ITEM: NUMBER OF ATOMS
64
ITEM: BOX BOUNDS pp pp pp
0.2488697 13.7671299
0.2488697 13.7671299
0.2488697 13.7671299
ITEM: ATOMS id type x y z fx fy fz
1 1 13.2423 4.7798701 10.7226 0.0115888 0.0085408 -0.0011675
2 1 12.5529003 2.20876 8.1708298 0.0713771 -0.0601208 -0.0252439
3 1 9.3265305 6.4481502 10.5962 0.110882 -0.0890823 0.0643828
4 1 10.0080004 5.7404199 4.1746898 -0.106796 0.0502514 -0.0352845
5 1 3.8961502 9.7493696 7.5987602 -0.0092524 0.0352137 0.0204106
6 1 13.6225004 10.6280003 8.78333 0.0598298 0.0144834 -0.0437778
7 1 12.3695002 7.19385 7.63028 -0.086448 0.0593679 0.0029319
8 1 2.8197701 1.11922 10.7803002 -4.0132103e-04 -0.0176723 -0.0290292
9 1 7.3936901 11.2670002 12.5811997 -0.0010288 -0.0971697 0.111436
10 1 1.98735 2.1073899 0.7402 0.0025319 -0.108698 0.0061564
11 1 9.4919796 3.7560301 7.6821199 -0.119982 0.0517477 0.0367341
12 1 4.2240801 10.6633997 3.7464001 -0.0295293 0.015263 0.0141539
13 1 11.0085001 2.91268 0.704239 0.0801293 -0.0113944 -0.049719
14 1 5.7725702 2.6577499 6.8789402 0.113493 0.0081242 0.0565257
15 1 7.9078898 11.1739998 8.0986605 -0.0434712 0.0256219 -0.050229
16 1 8.63869 13.7299996 10.6632996 0.0827526 0.121947 -0.0772548
17 1 13.4884005 5.0979099 3.4931 -0.0037893 -0.125744 -0.0590442
18 1 8.2223702 5.76157 0.6159441 0.0520526 0.109343 0.0193534
19 1 5.5973602 6.84716 11.1004 -0.0088298 0.0218952 -0.0313508
20 1 0.404979 8.4873505 3.7590401 0.0400069 0.109014 0.0328424
21 1 6.1503902 6.99933 6.95507 0.079473 -0.0780295 0.0277204
22 1 7.0352302 0.605893 3.88005 -0.0037787 -0.0045552 -0.0166406
23 1 10.6573 1.94084 4.7226501 -0.0071355 -0.0450401 -0.0521307
24 1 3.94925 10.1120997 13.0734997 -0.0595463 -0.108253 -0.0729121
25 1 13.3857002 9.4428396 13.5698996 -3.69015e-04 0.0586531 0.0099575
26 1 0.862575 13.0480003 5.4303398 0.107108 0.0148905 -0.0176557
27 1 4.72151 5.23664 0.799282 0.0038875 -0.026248 0.02023
28 1 11.731 12.0784998 3.00402 -0.0028914 -0.0022825 -0.0153743
29 1 6.0647402 1.20477 13.2820997 -0.0284998 -0.0018954 0.0160867
30 1 2.93768 5.3659101 5.5236502 0.0900686 0.01692 -0.0520803
31 1 12.5179005 13.1396999 11.1950998 -0.0076272 0.0045522 0.024117
32 1 7.5345402 9.0811195 2.6166699 -0.0369449 -0.117281 -0.0022071
33 2 4.5890899 3.4653399 11.5969 0.0106163 0.0257926 0.0135942
34 2 10.9367 2.2039199 10.8409996 0.0014821 0.0395416 0.0040076
35 2 2.99336 11.5279999 10.3926001 -0.0622733 0.0093841 -0.0075423
36 2 11.7704001 4.38343 5.93707 0.0680587 -0.014895 0.0423964
37 2 11.6831999 13.0353003 6.4108 0.103494 -0.0403615 -0.0967213
38 2 9.3472796 0.653784 7.48663 -0.158492 0.0801529 0.071494
39 2 9.3140001 8.8694 13.6501999 -6.5593801e-04 -0.0129316 -0.0367827
40 2 4.3908 13.2052002 5.9898802 0.0286048 -0.055346 -0.0111246
41 2 5.7269302 13.4944 9.8729496 -0.012765 0.015686 -0.001641
42 2 13.3634005 8.3503103 10.6709996 -4.6672201e-05 -5.49192e-04 -0.0546626
43 2 9.6479197 13.6654997 13.7293997 0.0143934 0.0588751 -0.0652469
44 2 7.14996 4.6213398 9.5417805 -0.023301 -0.0127819 -0.0191046
45 2 13.6280003 1.75761 3.1986699 -0.0206451 0.0042909 0.0132482
46 2 1.85062 4.9242202 0.688978 -0.0897562 0.0711266 0.0491815
47 2 8.22435 3.23192 12.7547999 0.0108967 -0.0510951 -0.0726077
48 2 3.80564 2.6884501 3.16026 0.0187237 0.0133976 -0.0164134
49 2 2.4687901 6.6069799 11.7670002 0.0219139 0.0237493 -0.0405772
50 2 8.73841 3.4345601 2.3831899 -0.0475386 -0.0340177 0.0879403
51 2 11.2652998 7.8796402 2.51353 -0.0015963 0.0122058 -0.0249654
52 2 8.8091402 11.5135002 2.0300801 0.0144315 0.0577535 0.0320481
53 2 3.0598099 2.39785 6.2017398 -0.165382 0.0161289 0.003657
54 2 0.783835 5.14287 7.4064598 0.0430633 -0.087765 0.0761952
55 2 5.7509098 10.2947998 10.2862997 -0.0080896 -0.030866 -0.0072285
56 2 7.3172999 4.5718999 5.0497999 -0.0074756 0.005836 0.0206937
57 2 1.60664 10.9325 2.1287899 -0.0095066 0.0094553 0.0021702
58 2 3.83479 5.8835702 8.4498396 -0.0089699 -0.0089417 0.0363154
59 2 6.3987599 9.3887997 5.3331299 0.0145488 0.0518608 0.0368546
60 2 4.6196399 12.2670002 1.23083 0.0505406 0.116975 0.0472032
61 2 10.7936001 11.5150004 8.8250799 -0.0290117 -0.0180192 0.0807402
62 2 12.7988997 6.6476002 13.0536003 -0.0478431 -0.08982 0.068482
63 2 7.95605 8.47435 9.24893 -0.0744295 0.0167253 -0.0196515
64 2 9.6153603 8.5143299 6.7072201 0.01815 -0.0039101 -0.04389
