ITEM: TIMESTEP
174000
ITEM: NUMBER OF ATOMS
54
ITEM: BOX BOUNDS pp pp pp
-0.1001141 11.0080938
-0.1001141 11.0080938
-0.1001141 11.0080938
ITEM: ATOMS id type x y z fx fy fz
1 1 10.9569998 -0.0203269 -0.0132715 0.0137339 0.02339 -0.0629216
2 1 3.55001 -0.0172575 -0.0320563 0.0310608 0.0190313 -0.0272735
3 1 0.0680768 3.7857201 -0.0212795 -0.0496668 -0.0420013 -0.0542724
4 1 3.70466 3.6666801 -0.0442165 0.00203 -0.0159832 0.0083719
5 1 -0.0066389 -0.0280971 3.4993 -0.0094977 -0.0284859 0.0527063
6 1 3.6298399 10.9931002 3.5964201 -0.0071091 -0.031425 0.0479306
7 1 10.9351998 3.68376 3.4974301 0.0057294 -0.0183938 0.036554
8 1 3.5473101 3.4893401 3.7123001 0.0207245 0.0212929 -0.0705243
9 1 -0.0063102 10.9794998 7.38692 -0.0449345 0.0012698 -0.0543823
10 1 3.66253 10.8974 7.4563699 -0.0492572 8.64324e-04 -0.0015314
11 1 10.8106003 3.57441 7.2312498 0.0640303 0.0032925 -0.0227988
12 1 3.50544 3.37713 7.2251301 0.0124175 0.0699829 0.0781393
13 1 -0.024103 7.4043899 10.8576002 0.0117639 -0.0026682 0.0113103
14 1 3.6933 7.3829799 0.0013345 -0.0302597 -0.0161534 -0.0538268
15 1 -0.0854575 7.40451 3.4865799 0.0164657 0.0149156 0.0155541
16 1 3.5207501 7.3323898 3.6650601 0.0392425 -0.0122568 -0.0307519
17 1 10.9597998 7.2619801 7.15415 -0.0054177 -0.012604 0.0028835
18 1 3.4344399 7.1983099 7.2849698 0.0540818 -0.0023396 0.032891
19 1 7.35395 10.9799996 -0.0647154 -0.0708176 0.0033458 -0.0602664
20 1 7.3834601 3.6089101 0.0955883 0.0039292 0.0080789 -0.0315486
21 1 7.4106898 10.9502002 3.6571901 -0.0743302 -0.0036333 0.0069224
22 1 7.30794 3.56759 3.83893 -0.0494923 -0.0340274 -0.0837798
23 1 7.25705 10.9461002 7.4128199 0.0434072 0.0979295 -0.0209064
24 1 7.2439399 3.8385501 7.3537202 -0.0216448 -0.0692749 0.0395116
25 1 7.3266401 7.2873201 10.8526002 0.050977 -0.0374578 0.0454201
26 1 7.3893299 7.4747 3.5639301 -0.0409226 -0.083538 -0.0052137
27 1 7.3083501 7.4127402 7.2748098 -0.0434693 -0.0706894 -0.0220723
28 2 1.6731401 1.8496 1.78317 0.0278912 -0.0034974 -0.0103131
29 2 1.69489 1.70304 5.5573802 -0.0144892 -0.0194121 -0.0313374
30 2 1.52378 1.82348 9.1271095 0.0369263 9.1873503e-04 0.0194521
31 2 1.87682 5.4567399 1.7638201 -0.0015652 0.0169943 0.0125934
32 2 1.84406 9.29844 1.6278501 -0.0275251 -0.0327709 0.030203
33 2 1.74208 5.26932 5.4138098 -0.0178358 0.0248544 0.0074306
34 2 1.71443 9.0889702 5.4079099 -0.0026399 0.0281884 0.0118782
35 2 1.8676702 5.2709799 9.0819902 -0.0178714 0.0195292 0.0031423
36 2 1.68943 9.2783804 9.1802902 0.0264832 -0.0243349 0.0114795
37 2 5.5089202 1.5173201 1.97517 0.0034802 0.0516738 -0.037727
38 2 8.84832 1.56092 1.75212 0.0949532 0.0656302 0.0329907
39 2 5.3765502 1.58967 5.63376 0.0274059 0.0101004 -0.030374
40 2 9.2226601 1.42352 5.3361502 0.0108245 0.0665812 0.0543644
41 2 5.3561401 1.81145 9.1617699 0.0266449 -0.0075186 0.0114188
42 2 9.2290697 1.8648602 9.0946903 -0.0318266 -0.0244518 0.0307839
43 2 5.5956702 5.61621 1.74884 -0.0105882 -0.0184079 0.017086
44 2 9.3016596 5.7838002 1.7185301 -0.0342791 -0.0520595 -0.024063
45 2 5.5619703 9.1082201 1.6123901 -0.0049845 0.022008 0.0346128
46 2 9.12395 9.1443501 1.47864 0.0191878 -0.0135756 0.0468137
47 2 5.3350201 5.49718 5.2946801 0.0169687 0.001051 0.0305482
48 2 9.0960903 5.3713498 5.2911601 0.0270726 0.0593495 0.036966
49 2 5.2593999 9.2142201 5.6333499 0.0385129 -0.0324302 -0.0410701
50 2 8.9604302 9.1959105 5.59199 0.0678635 0.0050675 -0.0287737
51 2 5.4070401 5.3712201 9.1626301 -0.0096168 0.0299538 0.0048928
52 2 9.3289604 5.4101501 9.1961403 -0.0268885 0.0158104 -0.0011961
53 2 5.7111502 9.1129398 9.2217102 -0.0809154 0.0197277 -0.0069916
54 2 9.2743197 9.1135597 8.9690304 -0.0159633 0.0085588 0.0390645
