ITEM: TIMESTEP
130000
ITEM: NUMBER OF ATOMS
54
ITEM: BOX BOUNDS pp pp pp
-0.1124277 11.0204077
-0.1124277 11.0204077
-0.1124277 11.0204077
ITEM: ATOMS id type x y z fx fy fz
1 1 -0.0013294 10.8577004 -0.0828262 0.0146205 0.0253684 -0.0102471
2 1 3.8141401 -0.107568 -0.0445377 -0.0484545 0.0036214 0.0071832
3 1 -0.112366 3.4779601 0.0099341 -0.0689052 0.0256623 -0.0666681
4 1 3.40276 3.6603401 10.9062004 0.0573703 -0.0611042 0.0378524
5 1 -0.0826684 10.8718004 3.58372 -0.0097644 0.0041792 -0.0055242
6 1 3.6043401 11.0087004 3.6957701 0.0454828 -0.019763 -0.072864
7 1 -0.0543331 3.51579 3.4828401 0.0270759 -2.93078e-04 0.0770476
8 1 3.7277801 3.67709 3.6754601 -3.2002199e-04 -0.052384 -0.0212586
9 1 10.8534002 -0.065654 7.2874999 -0.0037319 -0.0146185 0.0193938
10 1 3.3778401 -0.0855215 7.2789002 0.0549642 0.007434 0.0416408
11 1 -0.0165422 3.54946 7.2256899 -0.0566559 0.0505666 -0.0021138
12 1 3.543 3.47714 7.38976 0.0277016 0.0511673 -0.0517726
13 1 10.9318 7.2866402 10.9939004 0.007012 -0.0350908 -0.0415186
14 1 3.3959501 7.1975799 10.9665004 0.0732071 0.0674504 0.0427864
15 1 0.0732087 7.1846299 3.53214 -0.0367198 0.0018459 0.0075017
16 1 3.7251101 7.2839098 3.674 -0.0149222 0.0432053 -0.032812
17 1 10.9201002 7.4267001 7.2175999 0.0646595 -0.0091284 -0.0016298
18 1 3.7174399 7.3452602 7.3071098 -0.0753612 -0.0330126 0.0206254
19 1 7.50876 10.9834004 11.0143995 -0.0213482 0.0063373 0.0919796
20 1 7.1002898 3.56948 0.0581216 0.0058636 0.0079226 -0.0418586
21 1 7.4613099 11.0221004 3.6848099 -0.0117428 -0.0256352 -0.0085443
22 1 7.51649 3.7984801 3.62197 -0.0550566 -0.0487886 0.0106386
23 1 7.1125102 -0.065668 7.5954399 0.0249944 -0.0096458 -0.136765
24 1 7.2497301 3.73893 7.3190999 0.0096003 -0.061232 0.0063084
25 1 7.1824498 7.3495302 10.9068004 0.0194135 -0.0206824 0.0753582
26 1 7.4763999 7.3768802 3.5306599 -0.0427273 -0.0025718 -0.0064293
27 1 7.2739401 7.3238402 7.3751702 -0.0427001 0.0936218 -0.092872
28 2 1.73192 1.5903 1.85073 0.0186645 0.0083894 -0.0231146
29 2 1.78785 1.55501 5.27986 -0.0403198 0.0622328 0.0311912
30 2 1.40573 1.79039 9.2877503 0.0614913 -0.0370222 -0.0391338
31 2 1.8406302 5.34655 1.67662 -0.0321917 0.0133689 0.0355427
32 2 1.76169 8.95712 1.73886 0.0157019 0.0327216 0.0015956
33 2 1.85432 5.4931503 5.3813901 -0.0088001 -0.0123591 0.02723
34 2 1.79641 9.2503796 5.40024 -0.0227348 -0.044455 0.0128842
35 2 1.61148 5.7425599 9.0501804 -0.0025364 -0.0535391 -0.0182005
36 2 2.0708499 9.1894999 9.1721201 -0.072277 2.00299e-04 0.0107618
37 2 5.5877099 1.4300701 1.93007 -0.0070819 0.0558211 -0.0245732
38 2 9.0579996 1.7787 1.7662701 0.020798 -0.011187 0.0026923
39 2 5.70083 1.66862 5.2595401 -0.0353083 0.0350608 0.0476989
40 2 9.2117796 1.70268 5.39785 -0.00163 0.0241252 0.0079091
41 2 5.4173398 1.79098 9.1915398 -0.0132946 0.015204 0.0199189
42 2 9.0127201 1.88532 9.2508602 0.0178458 0.0029947 -0.0120571
43 2 5.2472501 5.5924902 1.7425701 0.0448912 -0.0224107 -0.0200433
44 2 9.2274103 5.4095202 1.45664 -0.0313443 0.0092457 0.0456531
45 2 5.6525302 9.2184 1.84187 -0.0214061 -0.0068833 -0.0081095
46 2 9.2588596 8.9847298 1.6652301 -0.0111538 0.0346795 0.0156636
47 2 5.5247503 5.55403 5.5398302 -0.0024591 -0.0124504 -0.0198508
48 2 9.11829 5.6767102 5.3903599 0.0299923 -0.0288929 0.0240206
49 2 5.2345801 9.1724196 5.5296402 0.0657209 0.0275714 -0.0052284
50 2 9.0336199 9.1141901 5.4958101 0.0158048 0.021503 0.0067348
51 2 5.38621 5.5736399 9.2731104 -0.0048389 -0.0381438 -0.025505
52 2 9.0577803 5.6465998 8.8427602 0.0645423 -0.064979 0.0878328
53 2 5.3881602 9.2098503 9.27664 0.0016534 -0.0189452 -0.0172466
54 2 9.1359797 9.0990801 9.1874504 0.0067147 0.0137172 -0.0097054
