ITEM: TIMESTEP
198000
ITEM: NUMBER OF ATOMS
54
ITEM: BOX BOUNDS pp pp pp
-0.0860729 10.994053
-0.0860729 10.994053
-0.0860729 10.994053
ITEM: ATOMS id type x y z fx fy fz
1 1 0.0262472 -0.0572507 0.0159186 -0.0476831 -0.0356619 -0.0666979
2 1 3.7548001 0.02451 10.9601002 -0.0153594 -0.0500276 0.0219546
3 1 10.8548002 3.71295 10.8261996 0.0198287 -0.0230719 0.0345162
4 1 3.43377 3.5825701 10.9426004 0.0324493 0.0564604 0.0913407
5 1 10.8254996 10.7838002 3.62536 0.0613155 0.0237063 -0.0023729
6 1 3.4958899 10.7108002 3.5415499 0.0690812 0.0865142 0.0427615
7 1 10.8472004 3.4156499 3.5186999 0.0717216 -0.0200634 0.0133063
8 1 3.5675099 3.6615501 3.82176 0.0177612 -0.112323 -0.001068
9 1 10.9393998 -0.082383 7.43745 0.0394523 0.0963418 -0.0692431
10 1 3.6547001 0.150514 7.2697201 -0.006177 -0.0841403 -0.0249538
11 1 -0.0942244 3.58918 7.1872201 -0.0461707 -0.0150217 0.0304981
12 1 3.5195 3.5836101 7.4937201 -0.0121363 0.070432 -0.0620298
13 1 0.154256 7.3705602 0.102708 -0.0800952 -0.032693 -0.0228434
14 1 3.6591499 7.3975101 10.9716998 0.0498593 -0.0460482 -0.0357736
15 1 0.157797 7.0871 3.8144701 -0.04636 0.0145689 -0.0073257
16 1 3.68097 7.1360898 3.5458901 0.0457882 0.0378795 -0.0160652
17 1 10.8526002 7.4509301 7.4555998 0.0809312 -0.0930811 -0.0273483
18 1 3.59882 7.3642302 7.1725898 -0.0602979 0.059413 0.108663
19 1 7.48035 -0.0562488 10.8679 -0.0406172 0.0077331 0.0111384
20 1 7.2894201 3.65164 10.8815002 -0.0156967 -0.0324024 0.0949672
21 1 7.2831001 0.0617356 3.4934001 -0.0729813 -0.128465 0.0322355
22 1 7.25875 3.5614701 3.69066 -0.0312123 0.120334 -0.0134355
23 1 7.2168799 10.9792004 7.30057 0.0348784 0.0152939 -0.0294989
24 1 7.0123601 3.6368599 7.3070598 0.0971138 -0.0058274 -0.0338654
25 1 7.5395003 7.3174701 10.7827997 -0.0365013 0.0199141 0.0382246
26 1 7.5882702 7.35531 3.43047 -0.0480881 -0.0210029 0.0463474
27 1 7.2671499 7.3864198 7.1302199 0.0386524 -0.0873034 0.0759789
28 2 1.66315 1.47761 1.76497 0.0557716 0.0751003 0.0574379
29 2 1.81383 1.6173001 5.29318 -0.0306732 0.0112444 0.0138818
30 2 1.69407 1.84996 9.1964598 -0.0193548 -0.031912 -0.0094493
31 2 1.79377 5.0544801 1.97893 -0.0333811 0.0635935 -0.05224
32 2 1.91681 8.9872304 1.83205 -0.0360373 0.0111435 -0.0127098
33 2 1.72073 5.43289 5.84125 0.0167903 0.0175892 -0.0618472
34 2 1.71841 9.3074904 5.6452399 -0.0057301 -0.0248518 -0.0162788
35 2 1.67854 5.48241 9.1423998 0.0057071 0.0191268 0.0021966
36 2 2.0039101 9.4551296 9.0236597 -0.0275023 -0.0477866 0.0322044
37 2 5.3037901 2.0562201 1.6993701 0.0187753 -0.0263088 0.0206246
38 2 8.8025599 1.8424 1.8241 0.0854198 0.0138215 -0.0719602
39 2 5.6448102 1.68751 5.3882499 -0.065987 0.0046443 0.0141758
40 2 9.1892405 1.8209601 5.4197002 -0.0293691 -0.0371507 0.0276106
41 2 5.4520898 1.7629401 9.2539301 0.0159045 0.015299 -0.0247287
42 2 9.0386601 1.92652 8.9891596 0.0084068 -0.0183445 0.0014141
43 2 5.6960502 5.6643901 1.71129 -0.0142473 -0.0295917 -0.0113212
44 2 9.2265701 5.2551298 1.8836 -0.0203399 0.0444233 -0.037259
45 2 5.5952902 9.1236897 1.52098 0.0053567 0.0093822 0.027615
46 2 9.0223103 9.1729403 1.63862 0.0553878 0.0251872 -0.0117367
47 2 5.1420298 5.5043202 5.6369901 0.0878615 -0.0571451 -0.0329367
48 2 9.10464 5.4625502 5.6562701 0.0019135 -0.0073813 -0.0391504
49 2 5.57583 8.8415204 5.3988299 -0.0575253 0.100774 -0.0830702
50 2 9.1094799 9.2378798 5.45682 -0.0139424 -0.0202503 0.0183547
51 2 5.5732098 5.36972 9.27668 -0.0714009 0.0629497 -0.0261234
52 2 8.9558698 5.4458199 9.0205297 0.0461183 -0.019229 -0.0326534
53 2 5.4969502 9.01085 9.1185598 0.0011227 0.0298005 -0.007987
54 2 9.2584896 9.26964 9.01612 -0.078502 -0.0055856 0.0865261
