ITEM: TIMESTEP
148000
ITEM: NUMBER OF ATOMS
54
ITEM: BOX BOUNDS pp pp pp
-0.0672561 10.975236
-0.0672561 10.975236
-0.0672561 10.975236
ITEM: ATOMS id type x y z fx fy fz
1 1 0.0528113 -0.0402958 0.0837162 -0.0133243 -0.0165188 -0.0326244
2 1 3.5627699 0.125543 10.8702002 0.0083107 -0.0459736 0.0033149
3 1 0.0434695 3.5903001 10.809 -0.0779994 -0.0101672 0.0481062
4 1 3.61285 3.79633 0.0630632 0.0357872 -0.0824875 -0.0834113
5 1 10.927 10.8707 3.6749599 -0.0844084 0.0304618 0.0040323
6 1 3.35623 10.8990002 3.5174699 0.151678 0.10167 -0.0315906
7 1 10.8430004 3.6665299 3.5 0.0570859 -0.0510524 0.0111875
8 1 3.59618 3.71156 3.5978601 0.0427926 -0.0808691 0.103453
9 1 10.9477998 -0.0365514 7.4452601 0.0055928 0.0062989 -0.0534535
10 1 3.55635 10.9489002 7.0755701 -0.0554008 0.0097873 0.116927
11 1 0.137303 3.59445 7.1148501 -0.112265 0.014697 -0.0016242
12 1 3.6537099 3.6048401 7.1840501 0.0438881 -0.0303063 0.0358485
13 1 0.118474 7.3403802 0.0532983 -0.0667164 -0.0170559 -0.0369402
14 1 3.61952 7.3066502 0.0189716 0.0564114 0.0210743 -0.0627752
15 1 0.150417 7.2593999 3.6487401 -0.0276061 0.0262259 -0.0034092
16 1 3.9068402 7.3779898 3.5855301 -0.0364822 -0.0230977 0.0534761
17 1 10.6513005 7.3259502 7.4618802 0.110825 -0.023415 0.0010121
18 1 3.5732401 7.2023501 7.2554798 -0.015086 0.0221783 0.0140142
19 1 7.21874 10.8675004 -0.0214141 -0.0456354 0.122526 -0.0411133
20 1 7.22648 3.5796001 -0.0523882 0.0041001 -0.0093031 0.036384
21 1 7.2226901 -0.0088182 3.63181 0.0451229 -0.11092 -0.0580948
22 1 7.3193698 3.4563601 3.7386101 -0.033367 0.0678477 -0.0674821
23 1 7.1440601 10.9266006 7.3811898 0.0629935 0.0535702 0.0059079
24 1 7.29636 3.5899401 7.3097601 0.0219186 -0.0016568 0.021878
25 1 7.3267999 7.3304801 -0.0620602 -0.0062751 -0.0594401 0.0165263
26 1 7.5199499 7.26401 3.7363501 -0.0414362 0.033125 -0.0837213
27 1 7.1742201 7.4102202 7.3723898 -0.0371901 -0.0711878 -0.0075694
28 2 1.82313 1.93939 1.84386 -0.0226513 -0.0179677 -0.0198022
29 2 1.72786 1.72675 5.2576099 -0.001464 0.018898 0.0215233
30 2 1.7663601 1.87125 9.0046396 0.0296547 -0.0295758 0.011938
31 2 2.0004399 5.37674 1.93619 -0.0951583 0.0900989 -0.0376537
32 2 1.9657202 9.0896397 1.75347 -0.0563595 -0.011049 -0.0166752
33 2 1.75349 5.5631299 5.4444199 0.0242363 -0.0256386 0.005979
34 2 1.8480902 9.1775599 5.3252201 -0.033451 -0.0528774 0.0517534
35 2 1.7398401 5.2164898 9.1138096 0.0427877 0.0867479 -0.0293545
36 2 1.88841 9.0738297 9.0063105 -0.0187298 0.0110905 0.0210616
37 2 5.28828 1.7982301 1.83039 0.0214302 -0.0065118 -0.0027797
38 2 9.1870499 1.79127 1.42442 -0.018839 0.0074207 0.0725409
39 2 5.4038701 1.38718 5.3513899 -0.0300059 0.140367 0.0151011
40 2 9.0423498 1.7265101 5.5113902 0.0308445 -0.0155798 0.0144655
41 2 5.41083 1.72075 9.1812697 0.0098631 0.0309822 -0.0237004
42 2 8.9845104 1.66098 9.2129097 0.0178402 0.0252539 -0.0147022
43 2 5.5311599 5.4221401 1.96758 0.0323868 0.0032322 -0.0352917
44 2 9.3386898 5.41082 1.62668 -0.0420504 0.0225344 -0.0015773
45 2 5.3361602 9.2724505 1.6730601 0.0133423 -0.0065897 0.0180262
46 2 8.9476996 9.2454701 1.57555 0.0812559 -0.0415644 0.0901866
47 2 5.6268702 5.3274002 5.4024301 -0.0268727 0.0346716 0.0154549
48 2 9.14149 5.5868202 5.4368801 0.0314159 -0.0644916 0.040767
49 2 5.4541302 9.3365803 5.50346 0.0038219 -0.097543 -0.0411861
50 2 9.0578299 9.1086998 5.6029501 0.0109481 0.0373549 -0.0161487
51 2 5.4572602 5.3895702 9.2216301 -0.0055274 0.0188541 -0.0201435
52 2 8.9573098 5.3079 9.23913 0.0354556 0.0273276 -0.0212167
53 2 5.35325 9.09517 9.1892405 -0.0107537 0.0113649 -0.0020428
54 2 9.2041998 9.4540797 9.2791901 -0.0167346 -0.0728217 -0.0047818
