ITEM: TIMESTEP
112000
ITEM: NUMBER OF ATOMS
54
ITEM: BOX BOUNDS pp pp pp
-0.0711262 10.979106
-0.0711262 10.979106
-0.0711262 10.979106
ITEM: ATOMS id type x y z fx fy fz
1 1 0.0506382 10.9494 0.0533976 0.0162595 0.104542 -0.070439
2 1 3.80829 -0.0614021 0.194006 -0.0589431 0.0345794 -0.0121294
3 1 -0.0089116 3.83301 10.8522998 -0.088648 -0.0363232 0.0277895
4 1 3.40307 3.5146001 10.8037005 0.111007 0.0302067 0.0168653
5 1 10.96 -0.0852105 3.62903 0.0210803 -0.0183025 0.0566655
6 1 3.7163201 10.7290001 3.9294902 -0.0152347 -0.0169357 -0.0547064
7 1 -0.0569884 3.6535201 3.6111701 0.0695329 -0.0023414 -0.0237019
8 1 3.8183401 3.33391 3.3612599 -0.0609153 0.0716719 0.0895578
9 1 10.8667002 0.126774 7.4347801 -0.0228452 -0.127471 -0.0102515
10 1 3.428 0.0402966 7.4693499 0.024381 -0.0082697 0.0345067
11 1 10.8605004 3.47947 7.1827002 0.0478041 0.142048 0.0107611
12 1 3.52857 3.6741901 7.1226502 0.0397178 -0.0085891 0.0401572
13 1 10.8993998 7.44699 10.8007002 -0.0379938 -0.0736029 0.001401
14 1 3.4483099 7.17173 0.0181419 0.0237681 0.0410247 -0.0174254
15 1 -0.0204132 7.2946601 3.3470099 0.0104078 0.0332065 0.0597613
16 1 3.72468 7.0202899 3.5390001 -0.0441234 0.0265455 0.0629813
17 1 10.9248 7.4751601 7.1676302 -0.0364319 -0.0692443 -0.0103232
18 1 3.52577 7.4253302 7.4903798 0.094942 -0.0727694 -0.109972
19 1 7.2878499 10.9172002 10.9801998 0.0879286 0.033198 -0.0087387
20 1 7.3793302 3.66816 0.042607 -0.0219153 0.0012027 -0.01591
21 1 7.3127999 10.9160004 3.54022 -0.0040081 0.0097861 0.0097275
22 1 7.50627 3.6622901 3.6187401 -0.101185 0.0393938 -0.0151656
23 1 7.1157498 10.9681998 7.33248 -0.0239951 0.0719782 0.0381286
24 1 7.32126 3.6259799 7.2772498 -0.0573631 -0.0115395 -0.0054911
25 1 7.1740098 7.3560701 10.9132004 0.0559238 0.0107223 0.0854334
26 1 7.4608498 7.3079901 3.69096 -0.0190089 0.003473 -0.0219305
27 1 7.1323199 7.24472 7.3674402 0.009346 -0.0529799 -0.043246
28 2 1.7569 1.78016 1.96947 -0.0121851 -0.0270398 -0.0529236
29 2 1.8247301 1.59517 5.3014999 -0.0158224 0.039212 0.029187
30 2 1.55398 1.74197 9.2587605 0.0271011 0.0108794 -0.0190578
31 2 1.62888 5.5156102 1.73796 0.0381184 -0.0490166 -0.0166059
32 2 1.96906 9.3676701 1.78176 -0.0365072 -0.068565 0.0377581
33 2 1.8724102 5.1616001 5.2399302 -0.0115962 0.0632101 -8.8653202e-04
34 2 1.7954901 8.6749602 5.3414002 0.0310252 0.0674657 -0.0299146
35 2 1.61311 5.6536799 8.9740296 4.9226104e-04 -0.0514454 0.0033803
36 2 1.6999201 8.9102802 9.0794601 -0.017831 0.130746 0.0467453
37 2 5.6595001 1.7988 1.7886 0.0385092 -0.0376468 -0.0337559
38 2 9.4158096 1.91563 1.88388 -0.0520671 -0.036867 -0.0635463
39 2 5.36833 1.76971 5.4465299 0.0324406 -0.0034674 0.0167203
40 2 8.96309 1.7698 5.2325101 0.051998 -0.0337703 0.0746285
41 2 5.6439801 1.96472 9.3161402 -0.0352116 -0.0286732 -0.0275871
42 2 9.0755501 1.99153 9.2983599 0.0158281 -0.0466942 -0.0178207
43 2 5.4410501 5.3039799 1.74454 0.020337 0.0159155 -0.0148336
44 2 9.1877699 5.5499602 1.60656 -0.0071699 0.005211 0.0166942
45 2 5.4087401 8.8388796 1.87235 0.0171295 0.0441125 -0.007563
46 2 9.4181004 9.2149696 1.60715 -0.103392 -0.0254744 0.0580433
47 2 5.49437 5.49366 5.3598499 0.0147484 -0.0339497 0.0258787
48 2 9.3919296 5.6052799 5.4058299 -0.0367669 -0.0234064 0.0011377
49 2 5.6318002 9.0286703 5.6185398 -0.0563349 0.0101497 -0.0498027
50 2 9.0402803 9.4842196 5.7708502 0.0272112 -0.06437 -0.105034
51 2 5.4747501 5.55371 9.4399405 -0.0471915 -0.0618228 -0.0705577
52 2 8.9833298 5.4476199 9.0500898 0.033459 0.0154478 0.0128924
53 2 5.2240901 9.2756796 9.3071203 0.0311663 -0.0352329 -0.0312185
54 2 8.9361 8.9442396 8.8376398 0.0330234 0.0698813 0.103737
