ITEM: TIMESTEP
162000
ITEM: NUMBER OF ATOMS
54
ITEM: BOX BOUNDS pp pp pp
-0.0902981 10.9982786
-0.0902981 10.9982786
-0.0902981 10.9982786
ITEM: ATOMS id type x y z fx fy fz
1 1 0.080827 10.8969002 0.0469728 -0.0322938 0.0150696 -0.0900445
2 1 3.7743101 10.9508 10.9641 -0.0160649 0.0431142 0.0401814
3 1 -0.0775906 3.3866701 10.8660002 -0.0056027 0.0460932 0.0770087
4 1 3.5943401 3.46942 10.9407998 0.0100268 0.0708203 0.0528217
5 1 -0.081396 -0.0778132 3.5082801 -0.0391632 -0.0289693 0.0415783
6 1 3.47924 -0.0826416 3.7516501 0.0734797 0.0329898 -0.0780374
7 1 10.7427998 3.5761099 3.40132 0.0827969 0.0558521 0.0143828
8 1 3.60265 3.5755401 3.6095 -0.0569645 0.0765982 -0.057149
9 1 0.0465824 0.019816 7.0773001 -0.0554452 0.0057476 0.0718155
10 1 3.5682001 -0.0471004 7.27774 0.0312258 -0.0126997 0.050706
11 1 10.9400998 3.6694501 7.36829 0.0326657 0.0121522 -0.0756063
12 1 3.6916399 3.7458799 7.2924299 -0.063325 -0.0193724 0.027512
13 1 0.0193866 7.21667 0.001105 -0.0388229 -0.0031537 -0.0451781
14 1 3.69398 7.3670502 10.8444004 -0.039123 -0.0847387 0.105578
15 1 -0.0741973 7.1922998 3.6135199 -0.0198957 0.0527367 -0.0309523
16 1 3.69731 7.3839502 3.5219901 -0.0855825 -0.054053 0.0286794
17 1 0.0208555 7.3706598 7.1493702 -0.0351195 0.0041423 0.0918558
18 1 3.6805601 7.3173399 7.309 -0.0303213 0.0434712 -0.025229
19 1 7.4818602 10.9986 0.0051853 -0.0342078 -0.0337746 -0.0499632
20 1 7.21555 3.5481601 -0.032318 0.0094683 -0.0059211 -0.044974
21 1 7.31986 10.9294996 3.6115301 -0.015329 0.0181722 -0.003913
22 1 7.0493102 3.62638 3.5312801 0.10164 -0.0449915 0.0400011
23 1 7.2940002 10.8883 7.2133999 0.0059238 0.0485819 0.0398319
24 1 7.33039 3.6122 7.14889 -0.0070085 -0.0201492 0.0443518
25 1 7.26686 7.2385101 0.154291 -0.0113405 0.0146584 -0.0967925
26 1 7.1922302 7.2385202 3.6744399 0.0528345 0.0577818 0.0164136
27 1 7.2851 7.2860999 7.4877601 0.037139 -0.0167649 -0.0143232
28 2 1.7696101 1.7221 1.85405 0.0100749 0.0134839 -0.0248482
29 2 1.76341 2.08725 5.24577 -0.0571045 -0.0502195 0.0641991
30 2 1.94014 1.79486 9.1832104 -0.036545 -0.0357966 -0.0389267
31 2 1.71868 5.4723702 1.81774 0.0277949 -0.0274307 -0.0080085
32 2 1.91528 9.1990805 1.77591 -0.0111242 -0.0208825 0.0027069
33 2 1.80277 5.6203599 5.4346199 0.0197203 -0.0387159 -0.0064755
34 2 1.7296701 9.2171898 5.3379002 3.8429102e-04 -0.0361616 0.0152683
35 2 1.58388 5.4093299 9.2649899 0.0448158 0.0042451 -0.0280267
36 2 1.85685 9.1975603 9.4465904 -0.026054 -0.0063574 -0.0859862
37 2 5.4317498 1.6879601 1.74492 -0.005192 -0.0088946 0.0100068
38 2 9.1739798 1.70743 1.68838 -0.0127636 -3.3709898e-04 0.0056017
39 2 5.18998 1.88006 5.5485702 0.0621407 -0.0368687 -0.0242312
40 2 9.3105602 1.93828 5.3094602 -0.0542075 -0.0513865 0.0410023
41 2 5.4993801 1.6710401 9.1148701 0.0117785 0.010887 -0.0063397
42 2 9.12502 1.75976 9.18468 -0.0113751 -0.0222258 -0.0283727
43 2 5.3687101 5.39044 1.8239401 -0.019652 0.0205989 -0.0375367
44 2 9.0113602 5.4127302 1.66863 0.0321004 -0.0158094 0.0292115
45 2 5.3248301 9.1604605 1.79414 0.0460534 0.0187649 -0.0059519
46 2 9.2083101 8.9455404 1.60838 0.0113728 0.0389966 0.0537599
47 2 5.4570599 5.55193 5.5149498 -0.0063302 -0.0129325 -0.0093967
48 2 8.9886398 5.5346399 5.2751598 0.0327767 -0.0316241 0.0402195
49 2 5.3536501 9.1670399 5.4445 0.0182001 -7.5918303e-04 0.0051187
50 2 9.22402 9.1597405 5.4839301 -0.0106997 -0.0069575 -0.0192581
51 2 5.3891602 5.4718399 9.2485399 0.0292182 -0.020077 -0.0109812
52 2 9.0461102 5.2666702 9.3410902 0.0081079 0.0328839 -0.0218753
53 2 5.5773602 9.1266699 9.3793202 0.029162 0.0165418 -0.0513391
54 2 9.19905 9.2101498 9.0986605 0.0157569 -0.0063592 0.009904
