ITEM: TIMESTEP
196000
ITEM: NUMBER OF ATOMS
54
ITEM: BOX BOUNDS pp pp pp
-0.0514436 10.959424
-0.0514436 10.959424
-0.0514436 10.959424
ITEM: ATOMS id type x y z fx fy fz
1 1 10.8039999 10.8262997 -0.0096212 0.0637879 0.0772423 -0.0693763
2 1 3.61496 10.9249002 0.0900625 -0.0233561 0.0257225 -0.087212
3 1 10.8827 3.59898 0.0887205 0.0834507 -0.0031752 -0.0150335
4 1 3.6053801 3.6466 -0.0524926 -0.0082138 -0.0126465 -0.017385
5 1 10.9122 10.9266006 3.5242901 -0.0040121 -0.0392239 0.002407
6 1 3.57567 0.0495631 3.52577 0.0216572 0.0112933 0.0542247
7 1 0.133654 3.47084 3.7671299 -0.0213635 0.0089842 -0.0360735
8 1 3.8369901 3.8413302 3.49962 -0.0459882 -0.0448274 0.0601699
9 1 -0.0137832 0.0098461 7.1984 -0.0324772 -0.0111383 0.037125
10 1 3.6348601 10.9130002 7.4703398 0.0307795 0.0132938 -0.0239859
11 1 10.9477998 3.6822901 7.33812 0.0198948 -0.023255 0.0126416
12 1 3.52032 3.7583599 7.2869501 0.0514644 -0.0715156 -0.0512201
13 1 -0.0186819 7.2733798 10.9070998 -0.0210496 -0.0434799 -0.0294741
14 1 3.48643 7.3396902 10.7566004 -0.0144668 -0.0511011 0.112236
15 1 0.0384169 7.0446501 3.55196 -0.0189104 0.0975399 -0.0090636
16 1 3.76106 7.4151201 3.5818401 -0.0948696 -0.043026 -0.0162636
17 1 10.7721997 7.4123302 7.04175 0.0708807 -0.0423651 0.0900177
18 1 3.38199 7.33107 7.2259998 0.0268735 0.0046971 -0.0205787
19 1 7.2146301 10.7360001 0.0796539 0.0203499 0.0795813 0.0103608
20 1 7.3308101 3.7135799 10.9434996 -0.0330324 -0.0466682 0.0599004
21 1 7.1831002 10.9466 3.8079801 0.0027277 0.0786053 -0.0377392
22 1 7.4163499 3.70801 3.7783401 -0.0241641 -0.0265628 -0.0531784
23 1 7.3088699 10.8925 7.4260202 -0.0154692 0.0231117 -0.0107433
24 1 7.3810301 3.6498201 7.3726201 -0.0611908 -0.0313445 -0.0202724
25 1 7.3276401 7.2104702 -0.0353477 0.0408877 -0.0441596 0.0039267
26 1 7.3476 7.5001703 3.6132 0.035698 -0.101028 0.0376781
27 1 7.2476001 7.1971502 7.4015098 -0.0315727 0.0359923 -0.0233693
28 2 1.86741 1.98406 1.80944 -0.0035443 -0.038021 -0.0067784
29 2 1.84288 1.5049401 5.4891401 0.01252 0.0691459 -0.009308
30 2 1.93003 1.77975 8.9685498 -0.0459446 0.0176436 0.0550603
31 2 1.82689 5.5701599 1.75263 0.0290188 -0.0378621 -0.0216867
32 2 1.8031301 9.0585403 1.66519 -0.0140822 0.0027796 0.0325828
33 2 1.70293 5.39112 5.4709502 0.0294537 0.0218701 -0.0024219
34 2 1.93296 9.2133799 5.1771498 -0.0625989 -0.0215286 0.0460998
35 2 1.67836 5.4737001 9.0610104 -0.0024934 0.002106 0.0147349
36 2 1.53528 9.1264296 9.0174599 0.028034 0.0025594 0.0085603
37 2 5.4491802 1.7686401 1.77605 0.024462 0.0160168 0.002992
38 2 9.0835104 1.81018 1.63739 -0.0238885 -0.0242951 0.0491367
39 2 5.2572098 1.8189301 5.50102 0.0242177 0.0052995 0.0078948
40 2 9.1890001 1.7511801 5.3962798 -0.0140212 6.09549e-04 0.0230224
41 2 5.6926799 1.84536 9.3422003 -0.0467062 -0.0308525 -0.0345222
42 2 9.2223702 1.87184 9.06777 -0.0098027 -0.0325662 0.0244719
43 2 5.5128298 5.5985999 1.7227401 -0.001948 -0.0218502 -2.56567e-04
44 2 9.0827599 5.43465 1.91988 0.0074345 -0.0021525 -0.0243132
45 2 5.4442101 8.8236399 1.7155301 0.0042371 0.0893796 -0.0274152
46 2 9.2197104 8.8800002 1.60733 -0.0200522 0.0324618 0.0675585
47 2 5.4818702 5.7654901 5.43432 -0.0018509 -0.0498345 0.0057625
48 2 9.2311297 5.35672 5.4765301 -0.0176322 0.0229071 -0.0055143
49 2 5.1563501 9.1856098 5.5476699 0.0732403 0.0089886 -0.001005
50 2 9.16292 9.2177 5.4039002 -0.0255476 0.013854 -0.0121228
51 2 5.1057801 5.4672599 9.1187801 0.0857802 0.0107754 -0.0131263
52 2 9.3122797 5.36971 9.2874403 -0.0434814 0.0339942 -0.0447732
53 2 5.5078702 8.8403398 9.4338703 0.0024093 0.100752 -0.120348
54 2 9.15551 9.1156902 9.0188999 -0.0055288 -0.0127274 0.0259958
