ITEM: TIMESTEP
132000
ITEM: NUMBER OF ATOMS
54
ITEM: BOX BOUNDS pp pp pp
-0.0559016 10.9638816
-0.0559016 10.9638816
-0.0559016 10.9638816
ITEM: ATOMS id type x y z fx fy fz
1 1 -0.0047124 10.8533002 10.7915001 0.0630199 0.0905741 0.087864
2 1 3.6843701 10.9169998 10.8409996 -0.0673784 -0.0413483 0.107227
3 1 10.9208002 3.6424601 10.915 -0.0162265 -0.0354388 0.0810061
4 1 3.46524 3.5919001 0.017517 0.0361177 0.0390316 -0.0219547
5 1 10.9229002 -0.062899 3.5943301 0.0103343 0.0201811 -0.0485259
6 1 3.7058001 0.16774 3.5191801 -0.0254098 -0.098562 0.0129246
7 1 0.186121 3.7060299 3.7766299 -0.1507 0.0031634 -0.0852742
8 1 3.6083901 3.6344099 3.7205401 0.0803855 0.0415937 -0.0231236
9 1 0.0367821 10.9547006 7.2062702 -0.0190826 0.0362209 -0.0305384
10 1 3.5929201 -0.0115058 7.2723498 0.0175002 0.0422555 -0.0660795
11 1 0.015435 3.5885601 7.32161 0.0272286 -0.0178127 -0.0472961
12 1 3.6552 3.70908 7.2974401 -0.0609881 -0.0593631 0.018121
13 1 0.0378623 7.3137002 -0.0140229 -0.107752 -0.0398625 4.3438201e-04
14 1 3.4375501 7.2858 10.7393999 0.106738 -0.0120155 0.0560578
15 1 10.8072996 7.2939601 3.6973601 -0.0125007 0.0084744 -0.0542739
16 1 3.3125501 7.25733 3.5756901 0.0838633 0.0447941 -0.0210039
17 1 0.0985763 7.24472 7.2885599 -0.0335761 -0.0072144 0.0343228
18 1 3.7758601 7.2937598 7.2168799 0.0027651 0.0132334 -0.0238128
19 1 7.4506502 0.0061354 0.0762753 -0.0943212 -0.0216596 -0.166217
20 1 7.3313398 3.7128699 0.0423903 -0.0394891 -8.2214699e-04 0.0174553
21 1 7.3357601 10.969 3.4832001 -0.0325541 -0.0165262 0.136925
22 1 7.37537 3.543 3.7709701 -0.0180534 0.0464942 -0.0379735
23 1 7.2314201 10.8758002 7.4063602 0.0914102 0.0256552 -0.0113364
24 1 7.0957499 3.37202 7.4942999 0.0948684 0.033978 -0.0329533
25 1 7.20262 7.33568 10.936 0.0041647 0.0028049 -0.0085062
26 1 7.0830698 7.3313899 3.6495199 0.0069556 0.0030285 -0.0089645
27 1 7.42623 7.0322299 7.2840901 0.0057273 0.0328021 -9.3397999e-04
28 2 1.65465 1.90081 1.9284102 0.0158429 -0.0343266 -0.0467516
29 2 1.66503 1.78442 5.35042 0.0582448 -0.0373359 0.0523513
30 2 1.88248 1.8221901 9.2497997 -0.0317882 -0.0200737 -0.0429719
31 2 1.80827 5.2941299 1.78376 -0.0326796 0.0483886 -0.0034892
32 2 1.8533 9.2242003 1.71934 -0.0119805 0.0031538 0.0047681
33 2 1.90495 5.5056701 5.60149 -0.0210439 -0.0142185 -0.0179859
34 2 1.60514 9.0805798 5.3052502 0.0491152 0.0248993 0.0274784
35 2 1.73874 5.2309499 9.1359596 0.0127385 0.0597905 -0.0046482
36 2 1.87031 9.1403503 8.8116198 -0.0088208 -0.0084895 0.0574657
37 2 5.3167 2.0664001 1.6344201 0.0531177 -0.0598773 0.0627693
38 2 9.0041599 1.7678401 1.7212301 0.0850801 0.0560469 0.0439645
39 2 5.41855 1.86786 5.5109101 2.40114e-04 -0.0359032 -0.0124848
40 2 9.1004801 1.85794 5.4730201 0.0259114 -0.0383417 0.0240262
41 2 5.2694998 1.7711801 9.4387598 0.0854776 0.051096 -0.0920186
42 2 9.3934403 1.81957 8.9425802 -0.0642918 -0.049729 0.0516406
43 2 5.16119 5.5458699 1.8188401 0.0358433 -0.0029803 -0.0171062
44 2 8.9855204 5.5640002 2.04111 0.0113089 -0.0258006 -0.0437296
45 2 5.41048 9.1721497 1.72297 -0.0090322 -0.0077119 0.0034864
46 2 9.07617 9.0841999 1.68423 0.0255565 -0.0136737 0.025349
47 2 5.5212698 5.37779 5.3677702 -0.0137061 0.0071452 0.0289813
48 2 9.3927698 5.3076801 5.4699402 -0.0673218 0.0259398 0.0273385
49 2 5.6229701 9.1917696 5.68642 -0.0361438 -0.0269855 -0.0702258
50 2 9.2825804 9.12988 5.5354901 -0.0549909 0.0013893 0.0015563
51 2 5.3863001 5.2804198 9.1703196 0.009755 0.0413604 0.0217006
52 2 9.1205196 5.1168699 8.9803104 -0.0112219 0.0672628 0.0250041
53 2 5.3688002 9.2602902 9.02211 0.0189193 -0.0604071 0.036168
54 2 9.3803301 9.3021803 8.9984398 -0.0771762 -0.0842781 -0.0062067
