ITEM: TIMESTEP
134000
ITEM: NUMBER OF ATOMS
54
ITEM: BOX BOUNDS pp pp pp
-0.1253201 11.0333004
-0.1253201 11.0333004
-0.1253201 11.0333004
ITEM: ATOMS id type x y z fx fy fz
1 1 0.0250229 -0.0989756 0.19424 -0.0021326 -0.0091571 -0.0476933
2 1 3.64749 -0.0750436 0.175799 0.037978 -0.022218 -0.0650937
3 1 10.9245006 3.6745601 11.0094996 0.0419926 -0.0032036 0.0743465
4 1 3.54753 3.4703601 10.8402996 -0.0404103 0.0577228 -0.0442261
5 1 -0.0537964 -0.143334 3.85094 -0.0649512 0.0274745 -0.053755
6 1 3.5564001 10.9701996 3.7075601 -0.005266 0.0382943 0.0047554
7 1 -0.0644296 3.67235 3.62008 0.022302 0.0010392 -0.0099748
8 1 3.7021799 3.6828201 3.1488199 0.0085865 -0.0353741 0.100408
9 1 10.9353 -0.0690924 7.5156298 -0.0071179 -0.0432338 0.0235314
10 1 3.5320401 -0.125301 7.5467601 0.0035494 0.0078034 -0.0225388
11 1 11.0258999 3.50032 7.3387199 -1.55291e-04 0.0414786 -0.0249068
12 1 3.5644901 3.388 7.1392598 -0.013839 0.0930575 -0.0013822
13 1 10.9456998 7.3382502 10.9905996 -0.0162311 0.0311088 0.0024941
14 1 3.47105 7.3839798 10.8859998 0.0621009 -0.0577343 0.0264896
15 1 0.0407002 7.51473 3.56143 -0.0332355 -0.0600508 0.0305826
16 1 3.8687202 7.2582898 3.53477 -0.0508762 0.0345389 0.0243276
17 1 10.9222002 7.3032498 7.2673502 0.0271369 -0.0104551 -0.0257316
18 1 3.56093 7.4187598 7.3055301 -0.0221808 -0.041939 -0.0314578
19 1 7.58843 10.9250002 11.0613003 -0.0732576 0.0561013 -0.0580921
20 1 7.1496501 3.61939 -0.117341 0.0213747 -0.0236361 -0.0215473
21 1 7.3360901 10.9301996 3.5402801 0.05638 -0.0463755 0.0674492
22 1 7.5346799 3.6645601 3.4607799 -0.114871 -0.0818648 0.0386516
23 1 7.1887999 10.9187002 7.1494098 0.0033207 0.0614751 0.0853829
24 1 7.3762598 3.5715201 7.3707099 -0.009953 -0.0328561 -0.0040079
25 1 7.2094002 7.3656201 10.9228002 -0.0136816 -0.0695779 0.0344442
26 1 7.4478102 7.2307501 3.5734601 0.0029815 0.100258 -0.0456956
27 1 7.1479101 7.24576 7.1763201 0.0273381 0.0241418 0.0326797
28 2 1.70573 1.74645 1.82573 0.0078914 0.0169962 0.0133444
29 2 1.56696 1.61583 5.4889303 0.0467615 0.0388811 0.0314504
30 2 1.4806201 1.71243 9.3275499 0.0405814 2.33265e-04 -0.0082867
31 2 1.66239 5.7663203 1.6703301 0.0163583 -0.0662171 4.6462603e-04
32 2 1.90574 8.9387598 1.7066601 -0.0082274 0.0713266 0.0154239
33 2 1.86911 5.4794302 5.2347298 0.0040077 0.0021566 0.0213856
34 2 1.8152501 9.2930498 5.64077 -0.0229001 -0.0156889 -0.0067359
35 2 1.56053 5.5485001 9.10816 0.0246738 -0.0151804 7.4973703e-05
36 2 1.82986 9.3308697 9.3152199 -0.047465 -0.0069525 -0.0013457
37 2 5.7311902 1.45379 1.94204 -0.06929 0.0864348 -0.0726837
38 2 9.2035303 1.69215 1.91737 0.0234651 -0.0054219 -0.0276613
39 2 5.3214698 1.76632 5.38657 0.0384384 -0.01761 -0.0203431
40 2 8.9363004 1.7007901 5.3442001 0.0331633 0.0023566 0.0245714
41 2 5.43396 1.7171 9.1603804 0.0195994 -0.0131166 -2.0836501e-04
42 2 9.2615004 1.77805 9.4689799 -0.0285606 -0.0171733 -0.0397407
43 2 5.5889101 5.6180501 1.68571 -0.0086483 -0.0205283 -0.0209472
44 2 8.9515306 5.4527102 1.59986 0.0616758 0.0286438 -0.0274515
45 2 5.56987 9.1616297 1.69466 -0.0080464 -0.0061885 0.0049523
46 2 9.2648001 9.3292999 1.72837 0.0115558 -0.0615055 0.0407672
47 2 5.7775502 5.3215399 5.45713 -0.0876174 -0.0248401 -0.0452565
48 2 8.9505396 5.4570799 5.32938 0.10093 -0.010089 0.0662075
49 2 5.3706498 9.3591805 5.3810201 0.0071918 -0.0601568 0.0162315
50 2 9.2288399 9.3641596 5.6626201 -8.1364899e-05 -0.0482801 -0.045808
51 2 5.2719102 5.3962999 8.96103 0.0099637 -1.76186e-04 0.0185815
52 2 9.3213797 5.3945398 9.1594696 -0.0512183 0.0130652 -0.0148967
53 2 5.4649201 9.2518101 9.27073 -0.0096557 0.0062725 -0.0125379
54 2 8.9187298 8.7544403 9.0147495 0.0485714 0.0859407 0.0010078
