ITEM: TIMESTEP
108000
ITEM: NUMBER OF ATOMS
54
ITEM: BOX BOUNDS pp pp pp
-0.0926599 11.0006399
-0.0926599 11.0006399
-0.0926599 11.0006399
ITEM: ATOMS id type x y z fx fy fz
1 1 0.299351 0.100676 0.0376501 -0.160508 -5.6454497e-04 -0.0652048
2 1 3.6843901 10.7016001 10.816 0.0284189 0.0254228 0.0909686
3 1 10.8730002 3.71976 10.9018002 0.0751089 0.014088 -0.0019296
4 1 3.3573201 3.26824 10.9616004 0.0726186 0.045448 0.0392739
5 1 11.0110998 -0.0119228 3.5570901 -0.0694638 -0.0632453 0.0010523
6 1 3.62532 -0.0049049 3.72876 0.0388896 -0.0387076 -0.0833457
7 1 0.206248 3.5634899 3.46138 -0.12878 0.0362199 0.0673123
8 1 3.74224 3.58072 3.72379 -0.0290018 0.0204264 -0.0170916
9 1 -0.0522562 -0.0994711 7.2012501 -0.0949454 -0.0547078 0.0619116
10 1 3.55583 -0.0447668 7.3049998 -0.0158178 -0.0870886 -0.0112481
11 1 -0.073526 3.6019299 7.1409602 -0.0066479 -0.0066259 -0.0035622
12 1 3.5344901 3.4160099 7.3944702 0.007504 0.111829 -0.0329598
13 1 10.8480998 7.4959002 -0.0075617 0.0054127 0.0205791 -0.0978839
14 1 3.3942399 7.00983 0.0351868 0.0280702 0.0524554 -0.0464306
15 1 0.134479 7.3147502 3.6787 -0.066515 -8.6751805e-04 -0.0076316
16 1 3.6696899 7.3057299 3.6805699 0.024679 0.0350452 -0.0140988
17 1 -0.0604743 7.2135301 7.28895 -0.001768 0.0474245 0.0055729
18 1 3.7807701 7.1899099 7.4161 -0.0789029 0.0021991 -0.0071555
19 1 7.3189802 10.9594002 10.9582996 0.0343585 0.0259593 0.0148827
20 1 7.32653 3.69117 10.8898002 -0.0800763 -0.0241427 0.0546054
21 1 7.2200098 10.9624004 3.75979 0.0703629 -0.0722899 0.0108222
22 1 7.2892699 3.5622599 3.6589601 0.0560937 0.0028102 -0.0409595
23 1 7.0798202 0.0836666 7.2883601 0.0856213 -0.0084193 0.0469908
24 1 7.17557 3.8341301 7.3176398 0.0174147 -0.0255119 0.0092777
25 1 7.0733299 7.3201099 11.0028 0.125151 0.0151921 9.1979704e-04
26 1 7.3076301 7.22051 3.5261901 0.0314231 0.0213321 0.0231927
27 1 7.3836599 7.5692201 7.2477698 0.0034093 -0.0691549 0.0290288
28 2 1.90628 1.72883 1.96565 0.0252403 -0.0221618 -0.0233964
29 2 1.61391 1.46893 5.4277001 0.0586143 0.109757 0.0044213
30 2 1.71979 1.6384501 9.0194902 -0.021158 0.0164229 -8.0289803e-04
31 2 1.7947901 5.26787 1.69591 -0.0094661 0.0084275 0.020397
32 2 1.6022101 9.0966797 1.67356 0.0676041 0.0053051 0.044293
33 2 1.96706 5.5599499 5.4463001 -0.0196997 -0.0362034 0.0215674
34 2 1.9422802 9.2842798 5.3235798 -0.0479986 -0.0465458 0.0408628
35 2 1.68521 5.4983301 9.01227 0.0109428 -0.0309912 0.0287789
36 2 1.6894501 9.1447496 9.1227398 -0.0014481 -0.0192148 -0.0113311
37 2 5.7772198 1.47707 1.90676 -0.0874328 0.0757502 -0.063632
38 2 9.1159897 1.94917 1.49154 0.0126161 -0.0384796 0.0476839
39 2 5.4158602 1.89074 5.5514002 0.0086802 -0.0187627 -0.0094116
40 2 8.9582702 1.78344 5.5388398 0.0310817 -1.4997701e-04 -0.0056731
41 2 5.3339901 1.6488101 9.2067099 0.0207313 0.0251525 0.010777
42 2 9.2027702 2.0360899 8.9953404 -0.0229502 -0.0526479 0.0020598
43 2 5.3245702 5.4242502 1.9620302 0.0283841 -0.0095089 -0.0490125
44 2 9.4704705 5.7024398 1.75157 -0.0729109 -0.069736 0.0471442
45 2 5.3628202 8.9762402 1.5383801 -0.0241563 0.0401533 0.0755513
46 2 9.0593901 9.2506304 1.8912 0.0082749 -0.0039253 -0.0126179
47 2 5.5214401 5.54355 5.4862499 -0.0090547 -4.9147096e-04 -0.0112122
48 2 9.0760002 5.3308001 5.4377899 0.0238959 0.0322565 -0.010222
49 2 5.28791 9.1281605 5.6816702 0.0260082 0.0193367 -0.0527622
50 2 9.1691999 9.0240002 5.38444 0.0271809 0.0339407 -0.0178447
51 2 5.4897199 5.6329499 9.3548803 -0.0466769 -0.0840069 -0.0668107
52 2 9.1876001 5.4029102 9.1363401 -0.0176545 0.0535769 -0.0273926
53 2 5.40342 9.1044397 9.0567703 0.0346157 0.0022793 -1.7157001e-04
54 2 9.0928202 9.35781 9.12502 0.0246268 -0.0146385 -0.0075532
