ITEM: TIMESTEP
140000
ITEM: NUMBER OF ATOMS
54
ITEM: BOX BOUNDS pp pp pp
-0.0950165 11.0029964
-0.0950165 11.0029964
-0.0950165 11.0029964
ITEM: ATOMS id type x y z fx fy fz
1 1 0.0124453 10.8880998 10.9433002 -0.0157282 -0.041625 0.0604536
2 1 3.5176699 0.0238225 10.9778996 0.0665221 -0.0230729 0.0126686
3 1 0.0190787 3.45946 11.0072002 -0.0030804 -0.0126033 -0.0081224
4 1 3.68767 3.67222 10.7820997 -0.0074503 -0.033264 0.0286289
5 1 0.171008 0.13466 3.6380899 -0.0730673 -0.0626105 -0.0196995
6 1 3.8111501 -0.0448852 3.6753299 -0.0253413 -0.0445158 -0.0364836
7 1 10.7931004 3.7522099 3.589 0.0702335 0.0373976 -0.0149428
8 1 3.4359501 3.52191 3.4460399 -5.5967102e-04 0.0479708 0.0066417
9 1 10.9742002 10.9497996 7.3649602 -0.0049928 0.0019559 -0.068287
10 1 3.66094 -0.0318711 7.33078 -0.0308397 -0.0235985 -0.0208955
11 1 -0.0288776 3.6843701 7.3483501 -2.35149e-04 -0.0516134 -2.4674301e-04
12 1 3.6136501 3.59284 7.1658402 0.0113167 0.0432322 0.0036148
13 1 10.8041001 6.9583902 -0.0283239 0.0171785 0.095147 -0.016488
14 1 3.46629 7.3997102 -0.0786446 -0.0332972 0.0383884 -0.0120726
15 1 10.9808998 7.4501601 3.69383 -0.0032221 -0.0091485 -0.0108697
16 1 3.4667599 7.28122 3.67519 0.0638007 -0.0156627 0.0287898
17 1 0.0532304 7.3103199 7.3569799 -0.0905625 0.031513 0.0266591
18 1 3.5067001 7.4431 7.5123101 0.0775638 -0.0700576 -0.0997293
19 1 7.4395099 10.7741003 0.0022573 -0.0382946 0.042311 -0.0484653
20 1 7.4206801 3.5151999 10.9734002 -0.0334807 -0.0465314 0.0051887
21 1 7.4871898 11.0286999 3.59267 0.0020827 0.0145322 0.0029485
22 1 7.1194 3.6735699 3.62988 8.0894594e-04 -0.0062774 0.0058953
23 1 7.2950001 0.0168058 7.1665201 0.0072347 -0.0580904 0.0417246
24 1 7.4475498 3.4881301 7.4095702 -0.0416228 0.043364 -0.0643972
25 1 7.05509 7.0889001 10.9074002 0.0535986 0.018328 0.0425693
26 1 7.3882399 7.3262701 3.71507 -0.0367161 -0.0028767 -0.0712248
27 1 7.0492301 7.3925901 7.2758699 0.106573 -0.02289 0.0512826
28 2 1.7585401 1.7277 1.68619 0.0123222 0.0094568 -0.0091696
29 2 1.72496 1.81597 5.48696 0.0231874 0.0136324 0.0192206
30 2 1.6404801 1.7026201 8.9560604 0.0380173 0.0131455 0.0335475
31 2 1.86473 5.5937 1.61147 -0.049 -0.0522857 0.0393722
32 2 1.93468 9.1716404 2.05791 -0.0432575 0.038223 -0.0616292
33 2 1.65001 5.4721599 5.5534802 0.0297338 -6.9893304e-04 -0.0337438
34 2 1.75252 9.2353802 5.4337302 0.0121928 0.0041726 0.0223661
35 2 1.7583 5.3671799 9.1343498 0.0042796 0.0209619 0.00902
36 2 1.7878701 9.2011805 9.0366697 -0.0270758 0.0360249 0.0558334
37 2 5.54596 1.7077101 1.7039501 -0.0051749 0.0032006 -0.0058785
38 2 9.2304297 1.7465301 1.6645401 3.8021403e-04 -0.013399 0.0186243
39 2 5.29105 1.84777 5.3889299 0.0533196 0.0055329 0.0156614
40 2 9.4436398 1.96434 5.4359598 -0.0648468 -0.0589608 0.0307933
41 2 5.4910202 1.59503 9.1025896 0.0131459 0.0308489 0.0245905
42 2 9.3271599 1.52476 9.2789402 -0.0445098 0.0381853 -0.0180372
43 2 5.06532 5.5433202 1.5994101 0.0681422 -0.0228802 0.0495019
44 2 9.0433903 5.2544198 1.68597 -0.0179178 0.0322883 0.01927
45 2 5.27704 9.1501598 1.65516 0.0296048 -8.2253704e-04 0.0227244
46 2 9.3260002 9.2413302 1.78705 0.0066774 -0.0236208 0.0139209
47 2 5.33884 5.7273698 5.4488702 -0.0056834 -0.0557913 0.001965
48 2 9.3079596 5.5897103 5.7809301 -0.0509299 -0.007877 -0.0616104
49 2 5.3996101 9.0997601 5.4755802 -0.0123281 0.0281273 -0.0161293
50 2 9.0314503 9.1253204 5.5879202 0.0331646 0.0050796 -5.9850798e-04
51 2 5.4752798 5.3173099 8.9542398 -0.0050421 0.0117242 0.0049827
52 2 9.1121502 5.388 8.9849796 0.0051284 0.0284553 0.0468911
53 2 5.51367 9.1691303 9.31709 -0.0275258 0.0195255 -0.0270221
54 2 9.2266398 8.9371204 9.2806797 -0.0144269 0.0080491 -0.0196079
