ITEM: TIMESTEP
200000
ITEM: NUMBER OF ATOMS
54
ITEM: BOX BOUNDS pp pp pp
-0.0820347 10.990015
-0.0820347 10.990015
-0.0820347 10.990015
ITEM: ATOMS id type x y z fx fy fz
1 1 10.8274002 10.9089004 0.0180487 0.0160217 0.0167711 -0.004621
2 1 3.4275999 0.0841752 10.8376999 0.0412506 0.006711 0.0186108
3 1 -0.0442568 3.42698 10.9546004 0.0063333 0.0461466 0.0299942
4 1 3.5325001 3.93594 -0.0425289 -0.005495 -0.0346056 -0.0364295
5 1 0.260092 -0.0252221 3.86039 -0.0747773 0.0160379 -0.0685014
6 1 3.84166 10.9698 3.6303001 -0.0741329 0.011384 -0.0807381
7 1 10.9864998 3.6185999 3.5681501 0.0408768 -0.0358448 -0.0382367
8 1 3.69201 3.55724 3.5202501 -0.0433549 0.0226542 0.0811192
9 1 10.9724998 10.8999004 7.3363099 -0.0716226 0.0027773 0.040885
10 1 3.3571401 10.9196998 7.1328201 0.14583 -0.0699547 0.109398
11 1 10.9641 3.41308 7.1848698 0.104046 0.0119069 0.0183979
12 1 3.7762101 3.52436 7.4006801 -0.0259457 0.0124684 -0.0193379
13 1 0.0474781 7.2061801 10.9019004 -0.0177653 -0.0121502 0.0185538
14 1 3.70225 7.6096602 0.0985421 -0.0369814 -0.0412961 -0.034482
15 1 10.8497 7.3903899 3.4939499 0.0062214 -0.0245963 0.0263862
16 1 3.5495501 7.2297602 3.6638301 -0.0203271 0.0305569 0.029331
17 1 10.9028998 7.3113399 7.2653899 -0.0071765 -0.0376151 -0.0091755
18 1 3.44081 7.2431102 7.3418198 0.0669127 -0.0025695 0.0249254
19 1 7.2135801 10.8932 10.955 -0.0151583 0.0303185 0.0271907
20 1 7.2225399 3.53563 5.7096696e-04 -0.0197781 0.0316188 -0.04801
21 1 7.3726201 0.0646448 3.5467701 0.0426774 -0.0139972 0.0055443
22 1 7.3873701 3.7679701 3.7051301 -0.0177768 -0.127983 -0.0388509
23 1 7.3568602 -0.0797579 7.2705402 -0.0143616 0.0533486 0.0312902
24 1 7.5164399 3.85886 7.2822399 -0.0800022 -0.0548957 0.0339826
25 1 7.3378501 7.3148198 -0.0534413 0.0042464 -0.0373291 -0.0254995
26 1 7.1760101 7.1223502 3.58528 0.0538324 0.147705 0.0171626
27 1 7.26123 7.4183402 7.2379899 -0.0407227 -0.0248302 0.0260081
28 2 1.84103 1.83863 1.65631 -0.0175463 -0.0109318 0.0332613
29 2 2.1168699 1.76614 5.4781399 -0.0770043 0.0819432 -0.0556285
30 2 1.65969 1.71925 9.0569496 0.0059637 0.0127736 -0.0062621
31 2 1.72491 5.4787302 1.97835 -0.0045203 0.0035467 -0.0365536
32 2 1.42391 9.21385 1.7344101 0.0833441 -0.0189218 0.0129371
33 2 1.72454 5.2994299 5.5306802 0.0178669 0.0093737 -0.0114204
34 2 1.69633 8.8800802 5.46206 0.0029063 0.0275831 -0.0085765
35 2 1.6794501 5.3983102 8.9959298 0.0113179 -0.0168287 0.007805
36 2 1.6393501 9.1941996 9.1890497 0.0180486 -0.0118724 -0.0044806
37 2 5.1623802 1.8551 1.66421 0.0673572 -0.0330291 -0.0319877
38 2 8.9677602 1.94387 1.7679501 0.0474583 -0.0360643 0.0094274
39 2 5.49856 1.7934901 5.5413599 0.0173134 0.0041812 -0.0125187
40 2 9.0546103 1.80474 5.4920602 0.0139489 -0.0156906 -0.0177027
41 2 5.6048699 1.63274 9.0680504 -0.022625 0.0239452 0.0054402
42 2 9.2214804 1.67745 9.3605404 -0.044342 0.0017322 -0.0583264
43 2 5.3060098 5.5187702 1.81072 0.0350074 -0.0032558 -0.0163498
44 2 9.1637001 5.4345198 1.50112 0.0110852 -0.0063692 0.0381164
45 2 5.55514 9.0826397 1.99865 0.0052467 0.0188001 -0.0315325
46 2 9.0957499 9.2012997 1.8103401 -0.0207943 -0.0107782 0.0020381
47 2 5.4089999 5.3779202 5.33282 -0.0159996 0.0087927 0.0519107
48 2 9.4821196 5.40275 5.3445001 -0.0663796 0.0312157 0.0294214
49 2 5.58073 9.4552899 5.4160199 -0.0018715 -0.0782839 0.0239609
50 2 8.9527598 9.1455402 5.4313302 0.0438262 0.0032923 -0.0271981
51 2 5.48246 5.4152699 9.1313696 0.0106934 0.0278343 0.0061352
52 2 9.5430203 5.2096901 9.1139698 -0.0678101 0.0486728 0.0085668
53 2 5.4361301 9.1445799 9.2170496 -0.0074445 0.0053327 -0.0381323
54 2 9.1703596 9.0472603 9.1984396 -0.0079176 0.0102681 -0.0072476
