ITEM: TIMESTEP
144000
ITEM: NUMBER OF ATOMS
54
ITEM: BOX BOUNDS pp pp pp
-0.0732007 10.9811812
-0.0732007 10.9811812
-0.0732007 10.9811812
ITEM: ATOMS id type x y z fx fy fz
1 1 -0.0419249 10.8563004 10.9864998 -0.0031371 0.0517964 0.0182528
2 1 3.62286 -0.105855 -0.040832 0.0081978 -0.0214116 0.0268763
3 1 0.0599604 3.66902 10.8670998 -0.0245009 -0.0808217 -0.0290366
4 1 3.7209101 3.50698 10.7338 -0.0515811 0.0567432 0.0847174
5 1 10.8310004 0.157138 3.4837699 0.0198882 -0.0015766 0.0427934
6 1 3.4670899 -0.121747 3.6859401 0.0074026 0.0198995 -0.0194814
7 1 0.0522899 3.80876 3.3516901 -0.0455011 0.0080062 0.0792431
8 1 3.7809201 3.77965 3.49351 -0.10381 -0.0377557 0.0119743
9 1 10.8183003 -0.0980772 7.3688102 0.087996 0.0118384 -0.0329362
10 1 3.72169 -0.0149837 7.4226198 -0.0514874 -0.0631388 -0.0978969
11 1 10.9481002 3.7772901 7.1506901 0.0360723 -0.0573095 0.0373878
12 1 3.69484 3.63285 7.2711101 -0.0469772 -0.0135549 -0.0795656
13 1 10.9421998 7.1747298 -0.0310265 -0.0522491 0.0553582 0.0176245
14 1 3.4825599 7.2853098 10.9757996 0.0615935 -0.0480665 0.0053212
15 1 0.08697 7.66043 3.7379401 -0.0948204 -0.0926099 0.0010492
16 1 3.6840999 7.2767801 3.66609 -0.0181647 0.0194598 -0.014966
17 1 0.0323669 7.3519802 7.38974 -0.0048454 -0.0079837 -0.0281041
18 1 3.6787501 7.2256699 7.2476301 0.0219441 0.0407798 0.0313405
19 1 7.3592801 -0.0417317 10.9741002 -0.0430937 0.0221768 0.0203096
20 1 7.25524 3.68325 -0.0862418 0.0158391 -0.031282 0.0277174
21 1 7.1179299 10.7888003 3.6105299 0.0173415 0.0750521 -0.0033699
22 1 7.2459798 3.54911 3.7460001 0.0472196 -0.0613525 -0.120925
23 1 7.3312898 -0.0568087 7.4124799 -0.0482853 -0.102402 -0.0331072
24 1 7.3292499 3.3531201 7.2340002 -0.0272938 0.111069 0.0360555
25 1 7.1853199 7.3842902 10.9509002 0.0317345 -0.0365642 0.0220204
26 1 7.2664099 7.2097302 3.88457 0.0516315 0.0172432 -0.099086
27 1 7.52177 7.0826101 7.4537702 -0.0183677 0.0789132 -0.0747203
28 2 1.97154 1.96009 1.7435 -0.0243049 -0.0244678 -0.0088307
29 2 1.84276 2.0168099 5.21416 -0.0179631 -0.0097148 0.0262005
30 2 1.75033 1.45744 9.01968 -0.0167283 0.0684816 0.0370256
31 2 1.6983 5.6181202 1.6955 0.0506697 -0.014604 0.0244507
32 2 1.76712 9.17484 1.89728 0.0207445 0.014085 -0.0541873
33 2 1.78685 5.4983802 5.4896302 0.0077304 0.0044096 -0.0241395
34 2 1.91004 9.1350803 5.5994401 -0.0035478 0.0240324 0.0214639
35 2 1.7972701 5.4787402 9.0656996 0.0095735 -0.011654 0.0023976
36 2 1.68153 8.9524404 9.3777504 0.0184118 0.0534049 -0.0585328
37 2 5.29356 1.75865 1.77275 0.040211 -0.0103771 -0.0030001
38 2 9.1155996 1.9651902 1.75737 -0.0096239 -0.0041722 -0.0172516
39 2 5.2114201 1.78863 5.2355399 0.0412739 -0.0172375 0.0475541
40 2 9.3109398 1.76726 5.5532098 -0.0329608 0.0028655 -0.0334693
41 2 5.40837 1.75272 9.0484695 0.0515877 -0.001062 0.0305036
42 2 8.9854604 1.8913702 9.2345305 0.0597523 -0.0253558 0.0011113
43 2 5.5074301 5.3536 1.68615 0.0019277 0.0458883 -0.003605
44 2 9.0285397 5.6304798 1.71917 -0.0049306 -0.0226546 0.027004
45 2 5.3892999 8.8017502 1.7155401 -0.0027908 0.0745607 0.0356784
46 2 8.9600698 9.2524901 1.76809 0.0377372 -0.0413122 0.008848
47 2 5.6304202 5.4191599 5.5592199 -0.0449392 -0.0163116 0.0113845
48 2 9.0250797 5.1873398 5.33779 0.0509445 0.0625232 0.0294752
49 2 5.49261 9.1827602 5.5117502 -0.0264307 -0.0201866 0.0313106
50 2 8.95189 9.1306295 5.6638699 0.0333752 -0.0038685 -0.0290833
51 2 5.6083498 5.4458299 8.8545304 -0.0472191 -0.0396967 0.0793652
52 2 9.0188599 5.34269 9.2824698 0.0577885 0.0023347 -0.0130991
53 2 5.3449001 9.1100903 9.0966301 0.0253943 -0.0099775 0.0137416
54 2 9.3042097 9.0323801 9.2561798 -0.0484289 0.0075602 -0.011804
