ITEM: TIMESTEP
118000
ITEM: NUMBER OF ATOMS
54
ITEM: BOX BOUNDS pp pp pp
-0.0682504 10.9762306
-0.0682504 10.9762306
-0.0682504 10.9762306
ITEM: ATOMS id type x y z fx fy fz
1 1 -0.051666 10.7747002 0.0352645 -0.0280175 0.0199193 -0.0313107
2 1 3.58528 0.0705676 10.9529 -0.0081723 -0.0931706 -8.6034394e-04
3 1 10.9721004 3.43346 10.9273996 0.0193826 0.0257861 -0.0307348
4 1 3.7400899 3.5739601 10.9353 -0.0525835 0.0524498 0.0197633
5 1 10.8495998 -0.0576627 3.58163 0.0534112 -0.0049665 0.048574
6 1 3.53474 0.127342 3.5830701 -0.0094115 -0.0233983 -0.0316066
7 1 -0.007339 3.57988 3.4259401 -0.0090375 0.0153318 0.0979074
8 1 3.7163999 3.7302499 3.58338 -0.0277227 0.0214547 0.0268147
9 1 10.9551002 -0.0195507 7.4480601 -0.0346393 -0.0583469 -0.0576136
10 1 3.4854501 10.6890002 7.1231399 0.0813571 0.131563 0.0561058
11 1 0.121218 3.4949301 7.2656999 -0.0299166 0.0741466 -0.0204391
12 1 3.7744999 3.43343 7.31566 0.0093184 0.0278758 -0.0194954
13 1 0.0178264 7.1098399 10.9476996 0.0205589 0.0335849 0.0856886
14 1 3.66815 7.3523102 10.7475996 -0.0711782 -0.0237308 0.0462557
15 1 10.9076004 7.2816801 3.61009 -0.0026448 -0.0138414 0.0153519
16 1 3.4405 7.4957099 3.6573999 0.0463361 -0.0463055 -0.0270666
17 1 0.0422997 7.2655301 7.4256602 -0.0580838 -0.0220634 -0.0557371
18 1 3.64461 7.1995802 7.1929302 0.0129968 -0.0554714 0.0135847
19 1 7.2841601 0.0182976 10.9604998 0.0114462 -0.0465547 0.0109806
20 1 7.3227501 3.6125601 -0.0675865 -0.0028146 0.0141486 0.051987
21 1 7.3273802 0.0046674 3.5530501 -0.0493171 0.0041571 0.0176461
22 1 7.3517299 3.6917401 3.8037801 0.0128619 -0.0028973 -0.0579768
23 1 7.34869 0.0592772 7.3095298 -0.0391566 -0.028074 -0.0346775
24 1 7.5894499 3.76034 7.4122 -0.0504825 -0.0270528 -0.0342783
25 1 7.1726499 7.3305998 0.0362836 0.0730584 -0.0132621 -0.0586986
26 1 7.1851602 7.4038 3.6401999 -0.0407333 -0.0532751 0.044676
27 1 7.3368902 7.3793898 7.3663802 -0.0106648 0.0044075 -0.0096742
28 2 1.70452 1.8056801 1.67675 0.0281165 -0.0187961 0.0111051
29 2 1.90368 1.80707 5.5351501 -0.0195901 -0.0122315 -0.034824
30 2 1.87599 1.67388 8.9412298 0.0089463 0.0039328 0.0507994
31 2 1.86506 5.4358702 1.93316 -0.0086309 0.0221874 -0.0500846
32 2 1.82608 9.1726704 1.8023501 -0.0145286 0.0014045 -0.016844
33 2 1.67852 5.4579001 5.4893499 0.0179531 -0.0067656 -0.019748
34 2 1.57208 9.1264296 5.5426302 -0.0192295 -0.0100054 -0.0445744
35 2 1.80293 5.1719399 9.0862103 0.0211146 0.0390955 0.0157807
36 2 1.7601201 9.1971502 8.9670898 0.0041303 -0.0322533 0.0740832
37 2 5.3744602 1.82586 1.85783 0.036841 0.0011881 -0.0202414
38 2 9.0486603 1.89101 1.80403 0.0062984 -0.0214482 -0.0058858
39 2 5.4838701 1.9220002 5.35676 0.0107212 -0.0462944 0.0188208
40 2 9.2542105 1.84539 5.6038099 -0.0121542 -0.0110216 -0.040094
41 2 5.4015899 1.56205 9.1241903 0.0159533 0.0366323 -0.0205691
42 2 9.1610298 1.84791 9.09587 0.002879 -0.0277812 0.0257325
43 2 5.3269 5.6415401 1.70718 0.0024949 -0.027951 0.0238116
44 2 9.0489302 5.4099798 1.8739002 0.0048267 0.0130993 -0.018708
45 2 5.30933 9.0455503 1.69023 0.0012454 0.048187 0.0178624
46 2 9.00877 8.88688 1.8804 0.0381615 0.0632333 -0.0430553
47 2 5.4965601 5.41152 5.5497198 0.0056417 0.0125973 -0.005044
48 2 9.0510902 5.6050301 5.5004502 0.0373455 0.0020509 -0.0066088
49 2 5.3270102 9.3649302 5.2107301 0.0438256 -0.0341008 0.0212956
50 2 9.1069803 9.0909596 5.3889799 0.003555 0.0183541 0.0261216
51 2 5.5757098 5.2131901 9.0584803 -0.0242599 0.0597916 0.0139018
52 2 9.1642103 5.5657401 9.3769302 -0.0270178 -0.032398 -0.0454435
53 2 5.4020801 9.1188002 9.0250702 0.0177235 0.0253158 0.003829
54 2 9.1475496 9.0117102 9.2306404 0.0014866 0.0215626 0.0034152
