ITEM: TIMESTEP
166000
ITEM: NUMBER OF ATOMS
54
ITEM: BOX BOUNDS pp pp pp
-0.0702565 10.9782372
-0.0702565 10.9782372
-0.0702565 10.9782372
ITEM: ATOMS id type x y z fx fy fz
1 1 10.9210998 0.0335045 10.8602 -0.0018774 0.0238966 0.098124
2 1 3.5632601 10.9047004 10.9257002 0.0296502 0.0447457 0.054353
3 1 10.8756 3.7321899 10.9058 0.0336914 -0.0858724 0.0035758
4 1 3.5269001 3.57321 0.014349 0.0472395 -0.0237376 -0.019886
5 1 10.9526998 0.0493014 3.7357099 -0.0220508 -0.0965623 -0.0575688
6 1 3.5635 10.8216 3.67909 -0.0028244 0.100336 -0.0227255
7 1 10.9511004 3.50857 3.6496401 0.0208365 0.089128 -0.0942312
8 1 3.5042501 3.60884 3.65661 0.0882478 -0.036503 -0.0399513
9 1 -0.0283465 10.936 7.3209901 0.0086061 0.107129 -0.0045956
10 1 3.7911401 10.9349004 7.36864 -0.0577077 -0.115018 0.0047631
11 1 -0.0756234 3.6315201 7.1304402 0.0675931 -0.022937 0.0553666
12 1 3.75121 3.3700199 7.3325501 -0.0219402 0.0888187 -0.0017503
13 1 -0.0031665 7.1951299 10.9655 -0.0026223 0.109082 0.0188966
14 1 3.58773 7.1198602 0.0161257 -0.0121943 0.0625733 0.034962
15 1 10.9125996 7.22364 3.6399901 0.0539229 0.0489337 -0.0389074
16 1 3.4926801 7.39781 3.58004 -0.0216813 -0.140365 -0.0132815
17 1 -0.0655843 7.3179999 7.3812499 0.0147932 -0.0209889 -2.8416898e-04
18 1 3.6071701 7.0686498 7.5016198 -0.006106 0.0542375 -0.0563143
19 1 7.3694201 0.157555 10.8457004 -0.0478521 -0.0742387 0.0420027
20 1 7.3297401 3.70436 10.8401004 -0.0129757 -0.0224098 0.054227
21 1 7.2480302 10.7248001 3.5629301 0.0013698 0.0945606 0.0239052
22 1 7.3295298 3.67784 3.7129901 -0.0565914 -0.041786 -0.0700495
23 1 7.4914599 0.111018 7.2089 -0.0606034 -0.0181934 -0.022553
24 1 7.4961 3.75263 7.28086 -0.0788108 0.0135956 0.0034804
25 1 7.3656702 7.4335599 10.8677998 0.0463882 0.0211661 0.101057
26 1 7.3362002 7.2107701 3.63971 -0.0514434 0.0011742 -0.0289229
27 1 7.2933402 7.5242801 7.3220701 -0.0210924 -0.0381432 -0.0168881
28 2 1.74303 1.7078901 1.62949 -0.010672 0.0039399 0.0333242
29 2 1.89316 1.6531 5.3808599 -0.0172279 0.0170566 0.0404844
30 2 1.75752 1.95978 9.1967602 -0.0146939 -0.0498629 -0.0190783
31 2 1.62331 5.3055902 1.79632 0.0167566 0.0198356 0.0093268
32 2 1.66389 9.3406201 1.88184 -0.0181953 -0.0360143 -0.0316325
33 2 1.9533402 5.3098798 5.4265499 -0.046502 0.0463442 0.0388461
34 2 1.5450701 9.2004099 5.6563101 0.0807989 -0.0449283 -0.0646923
35 2 1.77921 5.1806898 8.9917402 -0.0033899 0.0328602 0.0253987
36 2 1.63675 9.44839 9.3160801 0.0396374 -0.121229 -0.0720576
37 2 5.3006301 1.52429 1.8362301 0.0188777 0.0415794 -0.0026743
38 2 9.2383003 1.73369 1.6417901 -0.0234351 0.0279908 0.0341836
39 2 5.31002 1.53122 5.4969602 0.0621848 0.0437499 -0.0560886
40 2 9.0788603 1.90571 5.26509 -0.001697 -0.0532937 0.0573417
41 2 5.5384102 1.7419501 9.1246004 -0.0069261 0.0170217 0.0029494
42 2 9.1759195 1.86494 9.0023804 0.0237724 0.0105014 0.0169853
43 2 5.5997401 5.2656398 1.67493 -0.0275467 0.0329847 0.0345121
44 2 9.0940599 5.5162802 1.61716 -0.0042918 -0.0055795 0.0325002
45 2 5.4812498 9.2925902 1.55619 -0.0018717 -0.045887 0.0224902
46 2 9.1048603 9.3063097 1.68918 0.0275696 -0.0310697 -0.0087595
47 2 5.4875102 5.4440499 5.7403302 -1.3887301e-04 0.0011288 -0.0417807
48 2 9.2703505 5.6334701 5.4542399 -0.0407515 -0.0491889 0.0298913
49 2 5.2274799 8.8975802 5.2969599 0.070509 0.0388223 0.0781799
50 2 9.1961899 9.0221596 5.5387702 -6.9629198e-04 0.0370186 -0.0286545
51 2 5.5693798 5.6330099 9.4424401 -0.0293592 -0.0545138 -0.0924954
52 2 9.1686297 5.5574298 9.1215096 -0.0071156 0.0028597 -0.0124103
53 2 5.3575401 8.9772302 9.3345299 -0.0071703 0.0411242 -0.0463767
54 2 9.1577196 9.3615799 9.0822296 -0.0123902 -0.0458735 0.0134834
