ITEM: TIMESTEP
186000
ITEM: NUMBER OF ATOMS
54
ITEM: BOX BOUNDS pp pp pp
-0.1109584 11.018939
-0.1109584 11.018939
-0.1109584 11.018939
ITEM: ATOMS id type x y z fx fy fz
1 1 10.9130002 10.9200002 10.9134998 0.0592875 0.0491023 0.0461991
2 1 3.6285301 11.0809002 10.8799 -0.0252247 -0.0801663 0.0567449
3 1 1.8344001e-04 3.3880799 -0.107108 0.001227 0.0645164 0.0361211
4 1 3.89326 3.38941 0.0166054 -0.0386262 0.0871435 -0.019378
5 1 -0.032215 10.8639002 3.3780799 0.0147404 0.0426667 0.0379842
6 1 3.7518499 -0.0589216 3.52787 -0.0885727 -0.039708 0.0545819
7 1 10.8606998 3.50065 3.5993901 0.0595253 -0.0301937 9.5457497e-05
8 1 3.57193 3.5355699 3.6585 -0.0281942 0.0381449 -7.0309501e-04
9 1 11.0359001 -0.0342761 7.3754101 0.0265087 -0.0303765 -0.0185749
10 1 3.55651 -0.0408469 7.3931298 0.0419915 0.0227439 -0.072081
11 1 10.9645004 3.57703 7.4736901 0.0418867 -0.0386115 -0.0802311
12 1 3.6070299 3.66239 7.34829 0.0197548 -0.0036085 -0.0121734
13 1 11.0455999 7.2376299 0.0868382 -0.0127921 -0.0049125 -0.0041338
14 1 3.55508 7.1318002 -0.0356745 0.0123396 0.0078668 -0.0446661
15 1 11.0654001 7.1666899 3.8355 -0.0322864 0.0415637 -0.0296672
16 1 3.5622201 7.2980099 3.6341901 -0.0089239 0.0253629 -0.0200796
17 1 10.9089004 7.2126999 7.40691 -0.018156 0.101352 0.0247084
18 1 3.3241601 7.53299 7.2639499 0.0645414 -0.03515 0.0355851
19 1 7.25874 -0.0324069 10.8035002 0.0126314 -0.0141219 0.0812373
20 1 7.5107198 3.622 10.9629002 -0.0327862 0.023498 0.0061384
21 1 7.2210698 10.8983002 3.7049101 0.0741349 -0.0100595 -0.0487494
22 1 7.2911201 3.5155101 3.5378201 -0.0525782 -0.0348629 -0.050194
23 1 7.5321002 11.0017004 7.2629399 -0.106566 0.0174252 -0.0102849
24 1 7.4212799 3.7054601 7.1685801 -0.105059 0.0266024 0.0529105
25 1 7.3987298 7.2204199 10.9764996 -0.0369785 0.0269173 -0.0068757
26 1 7.3060098 7.0520601 3.59131 -0.0306996 0.123625 0.004132
27 1 7.3333502 7.4461398 7.1960502 -0.0132758 -0.0506254 0.0308132
28 2 1.7293101 1.74387 1.77639 0.0179402 -0.01442 7.9681002e-04
29 2 1.60087 1.6787601 5.5350399 0.0190755 0.020438 -0.022413
30 2 1.89713 1.88424 9.2506905 -0.0106515 -0.0211399 -0.0241984
31 2 1.54801 5.4358802 1.93938 0.0377106 -0.0258171 -0.0141224
32 2 2.1994901 9.1584902 1.75404 -0.0739385 0.0195906 -0.0140896
33 2 1.5643 5.4716101 5.8222299 0.0364448 -0.033923 -0.078024
34 2 1.64344 9.3329697 5.4758702 0.0103126 -0.0083939 -0.0110985
35 2 1.76822 5.4147701 8.9959098 -0.0028886 0.013536 0.0691326
36 2 1.7079901 9.0361004 9.5044003 0.0053471 0.0079503 -0.0471618
37 2 5.5461798 1.44424 1.75402 0.0232796 0.055434 -0.0207368
38 2 9.0321903 1.62331 1.57572 0.0217107 -5.1006999e-04 0.0320094
39 2 5.5069299 1.91457 5.4317999 -0.008558 -0.032899 0.0217094
40 2 9.0025797 1.83846 5.45259 0.0448195 -0.0349732 -0.0152517
41 2 5.6216502 1.85012 9.0529203 -0.0210939 1.20318e-04 -0.0156534
42 2 8.9103004 1.84753 8.9946004 0.0747751 -0.0163023 0.030135
43 2 5.3702302 5.5095501 1.72304 0.026165 -0.0249626 0.0170977
44 2 9.0975199 5.5324402 1.88228 0.0462442 -0.0446023 -0.0454173
45 2 5.48065 9.1856403 1.35861 0.0111545 -0.0117399 0.0412139
46 2 9.1266899 9.3165398 1.71523 -0.0296632 -0.0418226 -0.0043295
47 2 5.2241602 5.6764798 5.3626099 0.0401025 -0.0614995 0.0604926
48 2 9.0951004 5.2486701 5.2904902 0.028782 0.0476671 0.0318816
49 2 5.4198098 9.0900698 5.5679999 -0.0139322 0.0292607 -0.0246216
50 2 9.3517399 9.41961 5.38941 -0.0105936 -0.0507606 0.0080965
51 2 5.24611 5.7609802 8.92449 0.0342739 -0.0202943 0.0118463
52 2 9.4237204 5.42657 9.1889696 -0.0652569 -0.0042667 0.0517557
53 2 5.60745 9.2613602 9.1003704 -0.0327461 -0.0240742 -0.0148984
54 2 9.1327801 9.18466 9.4078398 -0.0066648 -0.0477297 -0.0736102
