ITEM: TIMESTEP
176000
ITEM: NUMBER OF ATOMS
54
ITEM: BOX BOUNDS pp pp pp
-0.0857009 10.993681
-0.0857009 10.993681
-0.0857009 10.993681
ITEM: ATOMS id type x y z fx fy fz
1 1 -0.0217316 -0.068649 -0.0501511 -0.0369841 0.0323746 0.0129799
2 1 3.57813 10.9026004 10.8932 0.0328091 0.114874 0.0289541
3 1 10.8009997 3.7876401 -0.0375153 0.0343802 -0.0863156 -0.0357677
4 1 3.4228201 3.7225201 0.091007 6.4457402e-05 -0.0392053 -0.0655862
5 1 -0.0184774 10.9069004 3.6719601 0.019479 0.0038063 -0.028963
6 1 3.67448 10.7890997 3.5130201 -0.0199291 0.0792465 0.0011104
7 1 0.207393 3.49262 3.4902101 -0.0727192 0.0147134 0.0284753
8 1 3.93592 3.44465 3.5968299 -0.0546758 0.0311583 0.0452792
9 1 0.061987 10.9938002 7.4201999 -0.0729042 -0.0049599 -0.0143701
10 1 3.4820099 -0.0588019 7.1645598 0.140752 -0.0051255 0.0378543
11 1 0.0834227 3.6342299 7.2761798 -0.0042257 0.0015831 -0.0155503
12 1 3.7564299 3.5561099 7.4226899 -0.0188296 -0.0149403 -0.0317076
13 1 10.8801004 7.3726502 0.0125508 0.0475443 0.0051242 0.016308
14 1 3.59879 7.3502202 10.7958002 -0.0502197 -0.0363735 0.0820242
15 1 10.8894998 7.2683101 3.7839601 -0.0364907 0.0174604 -0.0372529
16 1 3.4304099 7.2725001 3.4456601 0.0146222 -0.006634 0.0426981
17 1 10.9357004 7.1935701 7.42487 0.0120456 0.0747939 -0.0496182
18 1 3.4314599 7.13973 7.2983899 0.0515943 0.0323411 -0.0540112
19 1 7.3476801 10.9924002 10.8060999 -0.0161252 -0.0090078 0.10855
20 1 7.13835 3.69698 -0.0153716 0.0450372 0.03018 0.0518748
21 1 7.3877902 10.7924996 3.7346399 -0.0439584 0.0577869 -0.0205808
22 1 7.50737 3.5968201 3.62391 0.0248494 -0.029949 0.0216271
23 1 7.4734402 0.0164422 7.3791599 -0.0529374 -0.0349392 -0.0984755
24 1 7.4372001 3.6668401 7.4928999 0.0393427 0.0428878 -0.108879
25 1 7.1394701 7.3559299 10.9603004 0.0249446 -0.0378984 0.0084686
26 1 6.9853902 7.2033 3.5955401 0.0756861 0.0105654 -0.0458683
27 1 7.2167401 7.4524002 7.23071 -0.0167636 -0.0059175 0.0212084
28 2 1.87919 1.74103 1.8134201 0.0110067 -0.0423121 -0.02332
29 2 1.88844 1.65613 5.2944999 -0.0013699 0.0217914 0.01038
30 2 1.67957 2.0562301 9.2915602 0.0121789 -0.0463016 0.001041
31 2 1.63146 5.65063 1.79965 -0.0111734 -0.0341718 -0.0416997
32 2 1.7832101 9.1519299 1.5831 -0.007176 -0.0088765 0.0290136
33 2 1.73155 5.4082999 5.14535 0.0363168 -0.0065107 0.0722376
34 2 1.75404 9.0281601 5.76927 -0.0322905 0.0021642 -0.0792804
35 2 1.7418701 5.5351 9.2350598 -0.020611 -0.0287107 0.0056571
36 2 1.82045 9.2074099 9.13622 -0.0330742 -0.0291762 -0.0046466
37 2 5.55825 1.68053 1.7115001 -0.0036563 -0.0212957 -0.0015192
38 2 8.9920502 1.52419 1.81784 0.0295119 0.0234655 -0.0093545
39 2 5.6354199 1.71073 5.4228201 0.0019434 -0.0078585 0.0208681
40 2 9.5229197 1.77958 5.56351 -0.0459588 -0.0025475 -0.0244313
41 2 5.7749 1.98298 9.1767502 -0.0959626 -0.0828651 -0.0055852
42 2 9.2540999 1.67702 9.04142 0.0265484 0.0458321 0.0492189
43 2 5.1900902 5.5282698 1.59956 0.0467445 0.0142032 0.0334988
44 2 9.2504501 5.5304199 1.7841701 -0.0532934 0.0065403 0.0336457
45 2 5.3894 9.0896902 1.73004 0.0104383 0.0055627 -0.0205616
46 2 8.9104404 9.1023998 1.79026 0.0336676 -0.0134553 -0.0104122
47 2 5.3081699 5.6087899 5.4454799 -0.0029989 -0.0452824 0.0166298
48 2 8.8819104 5.6409502 5.4656101 0.0339365 -0.0245479 0.0114246
49 2 5.28653 9.0778303 5.39848 0.0061563 -0.0041042 0.0241028
50 2 9.3032704 9.30161 5.5230599 -0.0124662 -0.0387495 0.0348061
51 2 5.4699102 5.5057402 8.9780398 0.0038075 0.0131975 0.0367414
52 2 9.3044901 5.4854598 9.0887499 -0.0678135 -0.0194228 0.0346834
53 2 5.17489 9.1865196 9.0864496 0.0713963 -8.3758602e-04 -0.0506553
54 2 9.0960197 8.8136101 9.2624302 -0.0021967 0.0866389 -0.0432653
