ITEM: TIMESTEP
184000
ITEM: NUMBER OF ATOMS
54
ITEM: BOX BOUNDS pp pp pp
-0.0442765 10.9522572
-0.0442765 10.9522572
-0.0442765 10.9522572
ITEM: ATOMS id type x y z fx fy fz
1 1 -0.0195127 0.0999727 10.9408998 -0.135821 0.0180729 -0.116804
2 1 3.49016 0.0515938 10.9048004 0.0625534 -0.0738563 -0.0217923
3 1 10.8316002 3.5922201 0.207361 0.0508244 0.022024 -0.0772696
4 1 3.5919299 3.6464701 10.9463998 0.0015728 0.0061347 0.0082843
5 1 10.8596002 10.974 3.5706301 -0.0256589 0.0893823 0.0643232
6 1 3.5900901 0.180436 3.46981 0.0114431 -0.056426 0.0387804
7 1 10.8710004 3.7186301 3.79513 -0.0334054 0.0086646 -0.0394887
8 1 3.38444 3.6640601 3.7318001 0.10041 -0.0330007 -0.0880014
9 1 0.0099314 10.8544998 7.15902 0.0083235 -0.0188064 0.0449207
10 1 3.60477 10.9069996 7.2660198 0.0509263 0.0263853 0.023847
11 1 10.8137999 3.6495199 7.4453001 0.146216 0.0107606 -0.0512118
12 1 3.6314099 3.60376 7.3392701 -0.0262381 -0.0856964 -0.0375947
13 1 0.221335 7.36969 10.8266001 -0.029653 -0.0233288 0.0209247
14 1 3.70717 7.2273202 0.0292634 0.0234059 0.0098027 -0.0826523
15 1 -0.0100425 7.4948201 3.4166901 0.0327107 -0.0991258 0.068879
16 1 3.68377 7.4151602 3.6658199 -0.115635 -0.0625971 -0.0158082
17 1 10.9116002 7.1642098 7.2332401 0.112815 0.047295 -0.0130432
18 1 3.45981 7.0855598 7.3164802 0.0530099 0.0860682 -0.0106685
19 1 7.1368499 0.140681 0.0666288 0.072367 -0.0520033 -0.0094428
20 1 7.2609701 3.85043 10.6898003 0.0119835 -0.069789 0.0752201
21 1 7.2069898 -0.0894592 3.7879801 0.0523421 -0.0135109 -0.0652953
22 1 7.1241298 3.5641101 3.6937001 0.0558816 -0.0260117 -0.124523
23 1 7.4793101 10.7757998 7.3957601 -0.0577378 -0.0064471 0.0046259
24 1 7.2848201 3.40975 7.1775398 -0.0103428 0.0191591 0.0378093
25 1 7.5327301 7.2892699 0.132994 -0.0743024 0.0439545 -0.0459571
26 1 7.21488 7.3274398 3.74715 0.0359868 -0.0439617 -0.0156054
27 1 7.27982 7.1276202 7.3822398 -0.0234036 0.0292175 -0.0049736
28 2 1.86296 1.85075 1.75849 -0.053133 0.0291648 6.09934e-04
29 2 1.61992 1.8002301 5.5278502 0.0355443 0.0122824 -0.0082441
30 2 1.81301 1.7313 9.07693 -0.0205666 0.0276228 -0.0152432
31 2 1.90101 5.4554 1.69108 -0.0393645 0.0103336 0.0378699
32 2 1.47587 9.55089 1.71801 0.170179 -0.144245 0.0243609
33 2 1.8259601 5.4085398 5.3313098 -0.0583945 0.076651 0.0724843
34 2 1.94804 9.3522596 5.3346 -0.0535536 -0.0460573 -0.0136523
35 2 1.85255 5.1779499 9.2320004 -0.0578265 0.0635842 -0.0301099
36 2 1.8933002 9.1381798 8.9980602 -0.016542 -0.0061271 0.0173763
37 2 5.3211398 1.96023 1.4953901 0.0357252 -0.0082423 0.100333
38 2 9.0366497 1.7789201 1.96147 -0.0127344 0.012392 -0.01691
39 2 5.5739599 1.52125 5.6047402 -0.0487108 0.0485424 0.0018438
40 2 9.31913 1.7963701 5.4392801 -0.0630527 -0.0184549 0.0193893
41 2 5.39816 1.83146 9.1822996 0.0047313 -0.011283 -0.0318433
42 2 9.3593102 1.73281 8.8846798 -0.0918267 -0.0589724 0.098327
43 2 5.26862 5.4927402 1.99436 0.0429661 -0.028031 -0.027577
44 2 9.3354998 5.5451002 1.77019 -0.0411288 0.0094383 0.0382583
45 2 5.2406702 9.0230799 1.6871701 0.0695502 0.0751586 0.0330155
46 2 9.25737 9.1110802 1.61246 -0.0238349 0.0561291 0.0240277
47 2 5.4061799 5.1638198 5.3448701 -0.0239733 0.0876478 0.0700308
48 2 9.1026201 5.4053002 5.6503101 -0.0294183 -0.0120398 -0.0545915
49 2 5.1220999 9.2823897 5.2872901 0.094114 -0.0090592 0.0621269
50 2 9.1930103 8.7232905 5.5704003 -0.0435503 0.102902 -0.0450638
51 2 5.4653702 5.4098802 8.89287 -0.0297962 -0.00446 0.0484037
52 2 9.3454905 5.6501498 9.1301899 -0.0588525 -0.0527358 0.06118
53 2 5.6448899 9.0402203 9.3135595 -0.0227103 0.0035243 -0.0198567
54 2 9.2775803 8.9890804 9.1855602 -0.0144136 0.0319741 -0.0140285
