ITEM: TIMESTEP
116000
ITEM: NUMBER OF ATOMS
54
ITEM: BOX BOUNDS pp pp pp
-0.0911802 10.9991608
-0.0911802 10.9991608
-0.0911802 10.9991608
ITEM: ATOMS id type x y z fx fy fz
1 1 11.0219002 11.0220003 10.9536 3.3576901e-04 0.0366384 -0.0344787
2 1 3.44047 10.8722 0.100043 0.0969939 0.0626019 -0.100538
3 1 0.0254936 3.65148 10.9101 -0.136484 -0.0104634 0.0567166
4 1 3.4856999 3.57164 -0.036344 0.124969 0.0169916 -0.0413111
5 1 -0.0437478 0.163524 3.4189799 0.0519509 -0.0900965 0.0609464
6 1 3.7525301 10.9203998 3.6217101 -0.0313674 -0.0055036 0.0460201
7 1 10.9250002 3.70766 3.6590801 0.0392958 0.0131323 -0.0335813
8 1 3.6874299 3.60358 3.7251201 -0.0670917 -0.0464779 -0.003827
9 1 10.8971996 10.9853002 7.1753898 0.0719597 0.0682964 -0.0363
10 1 3.47628 0.0533561 7.4442601 0.0299169 -0.0761018 -0.006672
11 1 10.7730999 3.6040201 7.1563301 0.0580331 -0.0239861 0.0702977
12 1 3.44909 3.5595501 7.4029899 -0.0130584 0.0321821 -0.0099875
13 1 -0.0190826 7.5665398 -0.109025 -0.0347069 -0.133976 0.0127901
14 1 3.66938 7.3198099 -0.0646266 -1.6679501e-04 -0.0556192 -0.023839
15 1 0.0902007 7.4537001 3.6540001 -0.0425819 -0.0140733 -0.0410304
16 1 3.80245 7.2625098 3.55176 -0.0429849 0.0379771 0.0407762
17 1 10.8004999 7.3147898 7.29071 0.112355 0.0019276 0.0117009
18 1 3.4503501 7.2104702 7.28612 0.0318264 0.0396058 0.0028057
19 1 7.4803901 -0.052788 -0.0469559 -0.0653963 -0.0092672 -0.0360753
20 1 7.3642101 3.7235899 10.9031 -0.0186051 -0.0455903 0.0063936
21 1 7.41714 10.7666998 3.6794901 -0.0160738 0.0100619 -0.0589949
22 1 7.3387599 3.5172701 3.4584201 0.0010056 -0.0026697 0.0024535
23 1 7.29738 0.0586288 7.3162198 -0.0176653 -0.078493 -0.0032686
24 1 7.1886301 3.5629399 7.1887698 -0.0298311 0.0472879 0.0152215
25 1 7.3265801 7.2451601 0.0604371 0.0337086 -0.0119729 -0.0408887
26 1 7.4141302 7.1603398 3.6954301 0.0104171 -0.0048514 0.0097666
27 1 7.2368798 7.4081102 7.5497799 -0.0427139 -0.0181006 -0.0155968
28 2 1.95902 1.8106801 1.67321 -0.0681264 -0.0150443 0.0677173
29 2 1.78292 1.71713 5.4636698 -0.0105982 0.0130596 -0.0126326
30 2 1.42747 1.79973 9.1453104 0.0586246 -0.0198349 -0.0461544
31 2 1.73332 5.2825899 1.79483 0.0136167 0.0446399 0.011998
32 2 1.90191 9.0414696 1.76274 -0.0316072 -6.6575098e-04 0.0428749
33 2 1.69387 5.6075201 5.4466501 -3.9496902e-04 -0.0399438 -0.0023813
34 2 1.71434 9.2751303 5.4250303 0.022743 0.0018157 0.0130052
35 2 1.48462 5.5741501 9.2926703 0.0610473 0.0090242 -0.0583889
36 2 1.7960201 8.92511 9.1299696 0.0081388 0.0697495 -0.0245898
37 2 5.3997202 1.69685 1.80935 0.0172402 0.0025952 -0.0247548
38 2 9.2213497 1.62242 1.65643 -0.0210542 0.0754725 0.0057036
39 2 5.6354699 1.6348701 5.18963 -0.0241506 0.0158 0.0440401
40 2 9.0163698 1.6389901 5.2944102 0.031468 0.0316635 0.0201455
41 2 5.6466899 1.66547 9.2167797 -0.0483836 0.0321966 0.0196212
42 2 9.0997496 1.77895 9.1962299 0.0191929 0.0128841 -0.0184407
43 2 5.2764201 5.32374 1.88052 0.0572195 0.0013044 -0.0546326
44 2 9.4551401 5.4352598 1.6551501 -0.0391232 0.0272301 0.0035267
45 2 5.7108999 9.2043696 1.46112 -0.0653099 0.0105843 0.0896657
46 2 9.2217903 9.0614901 1.6106401 -0.0126892 0.0345357 0.0593631
47 2 5.3009901 5.3803802 5.5336099 0.0318957 0.0187488 0.0101574
48 2 9.00282 5.5642801 5.7666302 -0.0227687 -0.0168467 -0.0743698
49 2 5.5916 9.0650301 5.6995101 -0.0345741 0.0184626 -0.0343495
50 2 9.2090702 9.0942097 5.4590101 -0.0171756 0.0054185 -0.0098828
51 2 5.2270799 5.3484602 9.1427603 0.029655 0.0139021 0.0049444
52 2 9.1370497 5.5380602 9.0584803 -0.0048976 -0.0235311 0.0417004
53 2 5.3660102 9.3967199 9.2907601 0.0147207 -0.0248782 -0.0232586
54 2 9.3006601 9.3450003 8.8799896 -0.0687489 -0.0378023 0.0998725
