ITEM: TIMESTEP
120000
ITEM: NUMBER OF ATOMS
54
ITEM: BOX BOUNDS pp pp pp
-0.1009592 11.0089397
-0.1009592 11.0089397
-0.1009592 11.0089397
ITEM: ATOMS id type x y z fx fy fz
1 1 10.9369002 10.9765998 10.9652996 0.0363636 0.0101329 -0.0144841
2 1 3.5506101 0.0641925 0.0199531 0.0287416 0.0114892 5.5614701e-04
3 1 10.9054004 3.53827 10.7959004 0.0430257 0.053306 0.138158
4 1 3.4196601 3.7206099 10.9558002 0.0440628 -0.0100581 0.0755171
5 1 0.173713 10.9292002 3.43238 -0.121508 0.0187343 0.0728324
6 1 3.5765701 -0.0722806 3.67029 0.116874 0.0096898 0.0216737
7 1 -0.141294 3.58654 3.5752001 0.0694563 0.0241809 -0.0093676
8 1 3.74175 3.55758 3.7042201 -0.0579543 -0.0045011 -0.0291787
9 1 -0.0379533 10.9615002 7.18819 -0.0396553 0.0199412 0.0259152
10 1 3.5672701 -0.0143123 7.4779101 0.0052753 -0.0582167 0.0032625
11 1 10.9054004 3.5120001 7.3696299 -0.002332 0.0392383 -0.114778
12 1 3.48297 3.48768 7.3714199 0.0135521 0.0360156 -0.0441357
13 1 -0.0313041 7.25246 -0.0715024 -0.0646823 0.0279418 -0.0917181
14 1 3.53878 7.6124401 0.0313802 0.0968031 -0.119126 -0.006407
15 1 10.9231006 7.2339802 3.4387 -0.0430241 0.0315664 0.105577
16 1 3.36218 7.2487602 3.70659 0.112439 -0.0020791 0.0367059
17 1 0.161804 7.3343601 7.3155999 -0.0711805 0.0023307 0.0105258
18 1 3.7658 7.3030601 7.4758001 -0.0644033 0.0028729 -0.0847964
19 1 7.3722701 10.8430004 -0.081532 -0.0353481 0.0317825 -0.0102521
20 1 7.12778 3.5556901 10.9743004 0.0546693 -0.0023801 0.0089682
21 1 7.2807598 11.0212002 3.5167799 0.0470457 0.0339324 0.0683576
22 1 7.39116 3.6954501 3.5716601 -0.0195102 -0.0171327 -0.0070045
23 1 7.2060499 10.8827 7.3709002 0.0831101 0.0528197 -0.0348534
24 1 7.0936599 3.5267501 7.3234301 0.0570983 0.0329649 -0.0132819
25 1 7.1373501 7.1586299 10.8804998 0.0809702 0.0676603 0.03255
26 1 7.26755 7.3504 3.34463 -0.006013 -0.0125713 0.0501016
27 1 7.3783202 7.2683201 7.2332802 0.0215451 -0.0086441 -0.0468095
28 2 1.65193 1.88085 1.6567301 0.0107727 0.001601 0.0099421
29 2 1.63394 1.7508 5.3636298 0.0200341 0.0104386 0.016679
30 2 1.61659 1.6838 9.2749796 0.0235004 -0.0019075 -0.031758
31 2 1.64273 5.6880102 1.75941 0.0564493 -0.0927563 -0.0156331
32 2 1.9495 9.1056299 1.927 -0.0600207 0.041911 -0.0249753
33 2 1.6767401 5.5127301 5.54596 0.0145207 -0.0475047 -0.0184061
34 2 2.0237899 9.2950201 5.6024399 -0.029323 -0.0328237 -0.0056672
35 2 1.84536 5.2728601 9.0475798 -0.0628701 0.0724137 0.0038075
36 2 1.72099 9.1369696 9.4823199 -0.0079509 0.0447367 -0.0860776
37 2 5.5439301 1.90109 1.79373 -0.024834 -0.0361202 0.0032541
38 2 9.34161 1.65825 1.93351 -0.0361894 0.0039144 -0.0459823
39 2 5.4563599 1.63965 5.7322603 -0.0212213 -0.0043012 -0.0659843
40 2 9.1954098 1.80782 5.3062601 -0.013509 -0.0268963 0.0276961
41 2 5.5735102 1.69599 9.2553501 -0.0420296 -0.0228598 -0.0069736
42 2 9.2404099 1.8161201 9.2437 -0.0882635 -0.0749304 -0.0502171
43 2 5.3582802 5.3488202 1.67343 -0.0058926 0.0252004 0.0157172
44 2 9.2927399 5.3336501 1.35365 -0.059228 0.013232 0.0675086
45 2 5.4882202 9.3263502 1.84919 -0.0391087 -0.0254855 -0.0293297
46 2 9.3987198 9.2452698 1.7638201 -0.0525789 -0.0229049 -0.0063154
47 2 5.4068899 5.4527898 5.32511 0.0196492 0.02137 0.0308653
48 2 9.1694403 5.48211 5.31492 0.0015699 0.0056746 0.0267472
49 2 5.6079502 9.1044903 5.45009 -0.0306184 -0.002496 -0.0156039
50 2 9.2579804 9.2112198 5.4236899 -0.0109086 -0.0122231 -0.0140791
51 2 5.2583699 5.6292801 9.3175602 1.12137e-04 -0.0874042 -0.0193359
52 2 8.8747196 5.3949599 9.0110598 0.0470646 -0.0147836 0.0232059
53 2 5.5081601 9.1059399 8.9969798 -0.0040437 0.0141202 0.0695598
54 2 9.16992 9.1650801 9.1093798 0.0094963 -0.0211062 -0.0022789
