ITEM: TIMESTEP
170000
ITEM: NUMBER OF ATOMS
54
ITEM: BOX BOUNDS pp pp pp
-0.0605063 10.9684868
-0.0605063 10.9684868
-0.0605063 10.9684868
ITEM: ATOMS id type x y z fx fy fz
1 1 -0.0153789 -0.0234308 10.8753004 -0.0863994 -0.0107747 0.0231703
2 1 3.4584601 -7.9429804e-05 0.104314 0.122253 0.0107548 -0.0135979
3 1 -0.0066218 3.5093501 0.0477952 -0.066692 0.0568624 -0.0772598
4 1 3.54841 3.6414199 10.9188004 0.0781376 0.0368708 0.025606
5 1 -0.0312054 0.164028 3.68523 0.0071663 -0.116861 -0.0127881
6 1 3.5089901 0.0061134 3.6259001 -0.0018634 -0.0504325 0.031672
7 1 0.0165162 3.65556 3.56198 -0.0316698 0.0297362 0.0546609
8 1 3.7107401 3.60622 3.6270199 -0.0516549 0.0204198 0.0052524
9 1 10.9321004 10.9576998 7.2938199 -0.006653 -0.0445892 -0.0216185
10 1 3.58601 10.9392004 7.6557102 -0.0302321 -0.0183582 -0.159937
11 1 10.8648996 3.6688001 7.2975798 0.0663927 -0.0123834 -0.0103533
12 1 3.6938601 3.53842 7.3819699 -0.0047745 0.001715 -0.0368411
13 1 10.9786998 7.2666798 10.8443004 0.0288415 0.0306124 0.0414051
14 1 3.6645201 7.5211101 0.0513441 -0.0294755 -0.102205 -0.14138
15 1 0.0559001 7.46453 3.7063601 -0.0393057 -0.0329574 -0.0295862
16 1 3.64924 7.3815899 3.3868599 0.022825 -0.0198786 0.164366
17 1 -0.0148478 7.2993498 7.3644199 0.0629435 0.0251972 -0.0869
18 1 3.65745 7.1603899 7.1961899 -0.0059856 0.0394218 0.0288744
19 1 7.3670201 0.147097 0.0039671 -0.0060192 -0.0404073 -0.0369415
20 1 7.3204398 3.80548 10.8828002 0.0528821 -0.0438644 -0.0103368
21 1 7.13726 10.9079 3.6974199 0.0204669 -0.0632735 -0.0179245
22 1 7.2263899 3.3732901 3.63289 0.0417697 0.079679 0.0217458
23 1 7.2384701 0.0233585 7.2057099 -0.0274747 -0.0783099 0.100313
24 1 7.3362198 3.5940399 7.3236399 -0.0449701 0.0029909 -0.0319469
25 1 7.1662102 7.4774199 10.9464998 0.0820287 -0.0327229 -0.0159177
26 1 7.3433099 7.22261 3.63232 1.6581601e-04 -0.0136114 -0.0960468
27 1 7.4063101 7.1863499 7.1058502 -0.0946559 -0.0223089 0.0867531
28 2 1.90376 1.90177 1.64781 -0.0425331 -0.0090464 0.0831829
29 2 1.74743 1.71173 5.6852699 0.0190481 0.0234959 -0.0267505
30 2 1.65384 1.80109 8.9899398 0.0096592 0.0187497 0.0413679
31 2 1.7481801 5.4383602 1.89323 0.0190091 0.0214644 -0.0338453
32 2 1.55742 9.17066 1.59074 0.0215562 -0.0060677 0.0647626
33 2 1.84125 5.2434101 5.5678702 -0.0064559 0.0270557 -0.0200188
34 2 1.72372 9.14219 5.6405902 0.0360453 0.0155898 -0.0176906
35 2 1.91426 5.4183302 9.1927099 -0.0311102 0.0244474 -0.0204202
36 2 1.85809 9.1725102 9.3373404 -0.0331125 -0.026752 -0.053485
37 2 5.4410501 1.87985 1.59837 -0.0074729 -0.015335 0.0286661
38 2 9.02526 1.5619101 2.1036999 0.0163967 0.0561772 -0.0870624
39 2 5.1801 1.54975 5.4955802 0.0390804 0.0409928 0.0224865
40 2 8.9392406 1.5577801 5.4162698 0.0580918 0.0656013 0.0093261
41 2 5.4249802 1.5988801 9.2641096 0.0112845 0.0596618 -0.0052513
42 2 9.2370596 1.71856 8.8978206 -0.0425649 0.0167653 0.0667901
43 2 5.6653099 5.1750498 1.78632 -0.0588118 0.0842452 0.0228293
44 2 9.3036699 5.6852298 1.5636701 -0.049246 -0.044777 0.058121
45 2 5.6438499 9.2508001 1.8088401 -0.0535506 -0.0082397 -0.0152849
46 2 9.1439896 9.1636496 1.5897401 0.0071279 0.0010337 0.0321976
47 2 5.4926701 5.5004201 5.3543 -0.0074992 -0.0270613 0.0044708
48 2 9.1093998 5.2750502 5.3110099 0.005555 0.0179469 0.0046806
49 2 5.4619499 9.0760899 5.6430202 -0.0168831 0.0096695 -0.0311076
50 2 8.9988298 8.9466 5.4983001 0.0640098 0.0840397 -0.0392379
51 2 5.6069498 5.6104698 9.0633497 -0.0299893 -0.0144507 0.0035715
52 2 9.2321701 5.6806698 8.9597302 -0.0560669 -0.078982 0.0616843
53 2 5.3958502 9.2523804 9.2067204 0.0379009 -0.0238712 0.0071575
54 2 8.9222202 8.9942904 8.8676004 0.0324842 0.0563244 0.054417
