ITEM: TIMESTEP
158000
ITEM: NUMBER OF ATOMS
54
ITEM: BOX BOUNDS pp pp pp
-0.0874344 10.9954148
-0.0874344 10.9954148
-0.0874344 10.9954148
ITEM: ATOMS id type x y z fx fy fz
1 1 10.8768998 10.9573002 10.9076996 0.0086878 -0.0249252 0.0162855
2 1 3.4863 -0.0012253 0.182178 -0.0125226 0.0100048 0.00495
3 1 10.9651004 3.5027101 10.8891002 0.0075308 0.0289674 -0.0149389
4 1 3.60024 3.6742401 10.9383002 0.0301114 -0.030857 0.0299413
5 1 10.9532004 -0.0585583 3.43172 0.0099858 -0.0494361 -0.0020105
6 1 3.7595601 -0.0228015 3.90381 -0.036459 -0.0195937 -0.0452365
7 1 10.7817002 3.4968601 3.37783 0.0222343 0.109476 0.072083
8 1 3.66797 3.6426599 3.5555699 -0.0247531 -0.0212592 -0.0353766
9 1 -0.0408097 10.8374005 7.1730499 0.0292553 0.044726 0.0198248
10 1 3.58053 10.9665004 7.4710899 0.0480493 -0.0173796 0.007443
11 1 -0.0868146 3.47695 7.1244502 0.0590671 0.0295207 0.0653463
12 1 3.6652 3.6285601 7.13939 -0.0111205 -0.015591 0.0709654
13 1 10.7601004 7.2832198 -0.07174 0.0468862 -0.007413 -0.0872042
14 1 3.43115 7.3909702 0.125136 0.0626637 -0.0631456 -0.117405
15 1 10.9079 7.4640899 3.4173 -0.0016349 -0.130473 0.06607
16 1 3.3840401 7.2940302 3.6359401 0.133532 -0.0175669 0.058635
17 1 0.216984 7.2786398 7.2842698 -0.0212407 -0.0605091 -0.0013829
18 1 3.8754202 7.2523298 7.5023699 -0.124634 0.0212345 -0.0128877
19 1 7.0288501 10.9171 0.195741 0.0853173 -0.0012488 -0.0985462
20 1 7.33004 3.5320301 10.8213997 -2.75019e-04 0.003945 0.0948092
21 1 7.3765502 0.101273 3.6802001 -0.0150178 -0.0271078 0.0506934
22 1 7.2898302 3.83741 3.7305601 -0.0114572 -0.0426341 -0.0732323
23 1 7.4956999 -0.0706436 7.3526802 -0.0735247 0.038365 -0.0148906
24 1 7.4126201 3.6247599 7.2772198 -0.0429904 0.015968 0.014667
25 1 7.0809698 7.25139 10.9349004 0.0527536 0.0210013 4.5583902e-04
26 1 7.3151202 7.4209399 3.59691 -0.0050584 -0.0055389 0.0103769
27 1 7.2495098 7.4488602 7.18681 0.155549 -0.161721 0.0124452
28 2 1.58978 1.84225 1.91635 0.0711107 -0.0175515 -0.0651093
29 2 1.41458 1.62736 5.2427402 0.0750061 0.0363322 0.0313664
30 2 1.91183 1.7592601 9.1062002 -0.034981 0.0125706 0.0106624
31 2 1.66737 5.4805002 1.86657 -0.0120286 -0.0247918 -0.0252123
32 2 1.7707401 8.9592304 1.80002 -0.0627354 0.124925 0.0127536
33 2 1.89741 5.31251 5.3597002 -0.0516158 0.0155811 0.0143923
34 2 1.6980701 9.0262499 5.2772102 0.0026246 0.0563434 0.036726
35 2 1.79294 5.3104401 9.3038101 -0.023245 0.0465474 -0.046866
36 2 1.83135 9.2613096 9.4884396 -0.017155 -0.0229694 -0.0617685
37 2 5.5057101 1.79978 1.81065 -0.0212235 0.0358338 0.0202267
38 2 9.0362396 1.6808 1.66934 9.90347e-04 0.0158458 -0.0147373
39 2 5.5486999 1.89763 5.5991903 0.0101154 -0.0329025 -0.0234689
40 2 9.1400604 1.83288 5.5086198 -0.0076472 -0.0298541 -0.0337371
41 2 5.53578 1.6607601 9.2696896 -0.0241086 -4.7339301e-04 -0.0269292
42 2 9.2027798 1.56063 9.1987801 -0.0198272 0.0456399 -0.0275386
43 2 5.3550201 5.6027599 1.62255 0.0030439 -0.0413333 0.0493857
44 2 8.9844704 5.6727 1.7080701 -0.0045721 -0.0543043 0.0104379
45 2 5.50946 9.0727396 2.01685 -0.0616981 0.0254042 -0.0212525
46 2 9.0893497 9.1813803 1.67373 -0.0196771 0.0091555 0.0039612
47 2 5.4653802 5.5700598 5.3526402 -0.0156095 0.0093976 0.0215704
48 2 9.3137703 5.4643502 5.59306 -0.0151921 0.0293468 -0.0322396
49 2 5.6137901 9.1326504 5.59793 -0.0701399 0.0707714 -0.0633221
50 2 9.4112902 9.1476698 5.2441902 -0.0750479 0.0155155 0.0538524
51 2 5.53407 5.3690901 9.1603699 -0.0113854 -0.0128923 -0.0168335
52 2 9.0051899 5.4707799 9.0868998 0.0311426 0.015234 8.9184704e-04
53 2 5.7671199 9.2142496 9.1066504 -0.0664283 0.0184389 0.0064542
54 2 9.18361 8.93705 8.71278 0.0493491 0.0273813 0.0944531
