ITEM: TIMESTEP
104000
ITEM: NUMBER OF ATOMS
54
ITEM: BOX BOUNDS pp pp pp
-0.1055497 11.0135298
-0.1055497 11.0135298
-0.1055497 11.0135298
ITEM: ATOMS id type x y z fx fy fz
1 1 -0.0550141 -0.0188711 -0.0224984 0.0620704 0.0127695 0.0418999
2 1 3.7295599 0.121585 -0.134583 -0.0431924 -0.033198 -0.0266136
3 1 10.4794998 3.7421201 10.8463002 0.129924 -0.0269644 -0.0086696
4 1 3.3277199 3.84723 -0.0585707 0.0301775 -0.0233074 0.0143247
5 1 -0.0998334 -0.105125 3.7758401 -0.0171603 0.0097173 -0.0353955
6 1 3.5896499 10.7545004 3.6882 -0.0403297 0.0862096 0.0180548
7 1 10.9358998 3.7660601 3.6210699 0.0281378 -0.0714129 -0.0647556
8 1 3.7024601 3.2235899 3.5783501 -0.0582165 0.0781597 0.0101954
9 1 -0.107967 11.0040998 7.51996 0.0112725 0.0116567 -0.0769728
10 1 3.6707201 10.8736 7.4194102 -0.0659444 0.0267054 -0.0424321
11 1 10.7697001 3.51367 7.1294799 0.0457421 0.017469 0.0307368
12 1 3.35762 3.4963 7.2525602 0.0424277 0.0283019 0.0201342
13 1 0.121804 7.2926202 0.0565124 0.0045883 0.0202087 -0.003779
14 1 3.78455 7.6640501 0.032678 -0.0032254 -0.0500774 0.0134219
15 1 -0.0650808 7.4154401 3.70138 0.0436948 0.0264775 -0.0090595
16 1 3.66292 7.16009 3.70028 0.0317988 -0.0198287 0.0279672
17 1 0.0735444 7.3906398 7.5278402 -0.0869689 -0.0320944 -0.0743329
18 1 3.60705 7.29356 7.6760402 0.0277304 -0.0275939 -0.103662
19 1 7.5390501 -0.0754518 -0.0105357 -0.0913458 -0.0402023 -0.044175
20 1 7.06183 3.5685699 10.9755002 -0.0836403 -0.0535814 -0.0516137
21 1 7.1192002 -0.0495791 3.5857301 0.127371 -1.56357e-05 0.0476343
22 1 7.2276201 3.7721701 3.34077 0.0772952 -0.0645109 0.0264036
23 1 7.2138901 10.9752998 7.30054 0.118966 -0.0705825 -0.0746575
24 1 7.0874 3.4786201 7.25488 0.0137125 0.0182661 -0.0211733
25 1 7.4784398 7.1011801 10.9109002 0.0306854 0.0725752 -0.0531592
26 1 7.3702698 7.39186 3.39674 -0.0481935 0.0031494 0.0691812
27 1 7.2940402 7.1817098 7.2160502 -0.0315893 0.044312 -0.0280197
28 2 1.87209 1.6405701 1.68704 -0.0295994 0.0190642 0.0295988
29 2 1.6233701 1.76072 5.4924999 0.006039 -0.0208759 -0.0112637
30 2 1.66649 1.8215601 9.1907797 -0.0055045 -0.0010965 0.0092157
31 2 1.87219 5.3488698 2.1902001 -0.012391 0.0168517 -0.0556767
32 2 1.8751 9.3387699 1.70475 -0.0334735 -0.0183321 0.0051335
33 2 1.63739 5.5179401 5.5385399 0.013079 -0.0068716 0.0104865
34 2 1.96785 9.0609798 5.44311 -0.0498314 -0.0178825 0.0516373
35 2 1.62322 5.3585901 9.2214899 -0.023847 0.0149952 -0.0311042
36 2 1.74017 9.1575098 9.2102499 0.0251583 0.0408123 0.04661
37 2 5.3828201 1.5228601 1.75721 0.0431601 0.0745351 0.0072574
38 2 9.11831 1.77036 1.6241 0.016206 0.0284998 0.058268
39 2 5.4225898 1.60153 5.39644 -0.0088398 0.0055997 0.0386777
40 2 9.1243401 1.8415 5.1561198 -0.0395999 -0.0089188 0.0252279
41 2 5.5819702 1.47067 9.0067701 -0.0404179 0.0853258 0.0667992
42 2 8.9928304 1.73829 8.90479 0.0078327 0.0024381 0.0444805
43 2 5.5369301 5.6992998 1.55703 -0.0341696 -0.0362557 0.0316528
44 2 9.3408203 5.6500402 1.79228 -0.0248322 -0.018892 0.0067347
45 2 5.4003501 9.4386101 1.8496 0.0374199 -0.0776828 -0.0564428
46 2 9.16782 8.9959498 1.7133501 0.0333213 0.0513095 -0.0144781
47 2 5.66499 5.2405 5.28371 -0.063868 0.0563302 0.0309109
48 2 9.2851601 5.6641898 5.2701302 -0.0511947 -0.0257081 0.0431744
49 2 5.39011 9.0528498 5.5643201 0.0165017 -0.008724 -0.0080442
50 2 9.0446396 9.0294199 5.4988499 0.0156106 0.0314318 9.1565695e-04
51 2 5.36904 5.4105101 9.1530504 0.0140146 -0.0149435 0.0100345
52 2 9.1233196 5.4352398 8.6469298 -0.0026256 -0.0100882 0.0765326
53 2 5.7424302 9.28934 9.2832403 -0.0250062 -0.0406574 0.0118612
54 2 9.39398 9.3196497 9.4194498 -0.0389309 -0.0628725 -0.0296823
