ITEM: TIMESTEP
128000
ITEM: NUMBER OF ATOMS
54
ITEM: BOX BOUNDS pp pp pp
-0.0832563 10.9912368
-0.0832563 10.9912368
-0.0832563 10.9912368
ITEM: ATOMS id type x y z fx fy fz
1 1 -0.0795304 -0.0591194 0.15835 0.0225373 4.94271e-04 -0.0908208
2 1 3.7121101 -0.0253746 -0.0433101 0.0138525 -0.0147078 -3.7604201e-05
3 1 10.9756002 3.6647201 0.0073428 0.0071046 -0.0121348 -0.0675025
4 1 3.72456 3.52249 10.9070998 -0.0998601 0.0492576 -0.0223546
5 1 0.0159615 10.9032002 3.6199 -0.0395416 -0.0036502 0.0854752
6 1 3.61021 0.334458 3.62027 0.0292067 -0.127671 0.0157455
7 1 10.9358998 3.6196301 3.5718801 -0.0881506 -0.0085564 0.0629482
8 1 3.33692 3.7228601 3.4521899 0.113081 0.0893412 -0.0273197
9 1 0.0208387 -0.0745315 7.4539199 -0.0284454 -0.0035873 -0.0534869
10 1 3.7283299 10.8458004 7.3646302 0.0050542 -0.0309341 -0.067736
11 1 -0.0591933 3.65096 7.2942 -0.0087479 -0.0549512 0.0231063
12 1 3.72103 3.2794399 7.1224599 -0.0515711 0.0773759 -0.022121
13 1 0.0012069 7.2781301 10.6675997 -0.0270718 0.0705192 0.056
14 1 3.6902299 7.2600098 -0.0139822 -0.0296196 -0.0015306 0.0017458
15 1 10.9693004 7.1806898 3.66097 -0.0131753 0.0733269 0.0078528
16 1 3.6253 7.5017801 3.69451 -0.0142784 -0.0117493 -0.032722
17 1 10.7671004 7.0763202 7.20263 0.0598715 0.103819 -0.0448809
18 1 3.3886399 7.2110901 7.37501 0.0119816 0.0114353 -0.0210633
19 1 7.43892 10.8691998 -0.013912 -0.0056706 0.0738124 -0.0568432
20 1 7.2943502 3.7859001 0.0011782 0.055979 -0.0392662 -0.0656384
21 1 7.3660698 -0.0414985 3.5414 -0.0118089 1.8103e-04 0.0167823
22 1 7.1336999 3.5628901 3.5783201 0.0178979 0.0505275 0.0526404
23 1 7.33464 10.7699003 7.3350701 -0.0015417 0.105891 -0.0308107
24 1 7.2852602 3.52964 7.3805599 0.0441907 0.0086466 0.0052398
25 1 7.2715402 7.3060002 10.9801998 0.0396313 0.010731 0.0127818
26 1 7.2751298 7.5243001 3.56369 0.0096286 -0.117086 0.0085404
27 1 7.1588602 7.2472 7.4149599 -0.0126863 -0.0465498 -0.0352399
28 2 1.5596 1.88167 1.8619 0.0374197 -0.0291005 -0.0384714
29 2 1.4732601 1.91506 5.47156 0.0462288 -0.0475525 -0.0198532
30 2 2.07443 1.59486 8.9680204 -0.0547268 0.0491137 0.0582854
31 2 1.3256201 5.6799503 1.63244 0.115498 -0.0420611 0.0239248
32 2 1.95802 9.30583 1.71174 -0.0130337 -0.0271476 0.0220117
33 2 1.89542 5.4527998 5.2658301 -0.0452447 0.0212923 0.0655904
34 2 1.7374001 9.1203203 5.6019802 -0.0110978 0.0051375 -0.011794
35 2 1.85568 5.2645502 9.0944996 -0.0276933 -0.0056561 0.0143218
36 2 1.78039 9.4158497 9.3027401 0.0138041 -0.0538539 7.91996e-04
37 2 5.4980698 2.05936 1.5965101 -0.002662 -0.0961573 0.0524786
38 2 9.1374903 1.9316 1.8019101 -0.0147805 -0.0303714 -0.0083718
39 2 5.6451998 1.66939 5.4868398 -0.0150945 -0.0177031 0.0016456
40 2 8.8400804 1.80766 5.3655901 0.0786307 -0.0084997 0.0304761
41 2 5.7163701 1.77284 9.2280502 -0.0234681 -0.0337984 0.0039459
42 2 9.4420004 1.8238 9.2499104 -0.0473118 -0.0136044 -0.0068369
43 2 5.57404 5.4790502 1.90219 -0.0428958 0.0310932 -0.0148272
44 2 9.1169901 5.4485402 1.91362 -0.0232997 0.0116229 -0.0211234
45 2 5.5659199 9.2828102 1.67363 -0.0365297 -0.0225392 0.0280477
46 2 9.3233605 8.9095498 1.757 -0.0059886 0.0254169 -0.0158356
47 2 5.5556698 5.4383502 5.5981303 -0.0318503 -0.0030538 -0.0370384
48 2 8.9691 5.2144599 5.4400702 0.0090755 0.0337232 -0.0069275
49 2 5.5016299 9.0452299 5.4436102 -0.0099365 0.0391849 0.0289664
50 2 9.0225496 8.91634 5.5654202 0.026639 0.0389329 -0.0191985
51 2 5.0538101 5.2531901 8.8922702 0.0896273 0.0339524 0.0343158
52 2 9.1217499 5.56251 9.11201 -0.0319475 -0.0575094 0.0267757
53 2 5.3998799 9.08424 9.0928898 0.0062418 -0.0103306 0.0413015
54 2 9.1915903 9.20226 8.9761696 0.0165486 -0.0435145 0.0571173
