ITEM: TIMESTEP
180000
ITEM: NUMBER OF ATOMS
54
ITEM: BOX BOUNDS pp pp pp
-0.0653511 10.9733316
-0.0653511 10.9733316
-0.0653511 10.9733316
ITEM: ATOMS id type x y z fx fy fz
1 1 10.8760004 0.0149232 10.9211998 0.0593971 -0.0827103 0.0133639
2 1 3.4677301 10.9209996 10.8616 0.0932476 0.0868768 0.0711653
3 1 0.0348197 3.53933 0.0501284 -0.0206913 0.0402238 -0.0454134
4 1 3.6183901 3.5543301 -0.0026157 0.0207464 0.0381424 -0.0807553
5 1 10.9238006 10.9259996 3.5424099 -0.0126963 0.0570431 0.0049486
6 1 3.53863 -0.0101308 3.6240599 0.0482506 0.0767593 -0.030276
7 1 -0.0449322 3.6619001 3.62816 -0.073664 -0.0197383 -0.0224369
8 1 3.5232699 3.68361 3.5590301 0.0714438 0.055168 0.0231692
9 1 10.8455 10.8913002 7.2248802 0.14657 -0.0743912 0.0054608
10 1 3.7568901 10.9513998 7.2037401 -0.044998 0.0102353 0.0256091
11 1 10.8502998 3.4312101 7.23804 -0.0228789 0.0723118 0.0406059
12 1 3.4021399 3.5694001 7.2722402 0.0609198 0.0568689 -0.0087744
13 1 0.132434 7.24265 0.0538218 -0.090193 0.0609342 0.0036309
14 1 3.68995 7.39111 0.0323551 0.0319788 -0.0478547 -0.0663812
15 1 10.8893004 7.2263198 3.68573 0.0622004 0.0578292 0.0109724
16 1 3.5503099 7.63691 3.5629699 0.0218501 -0.177716 0.0434422
17 1 -0.0405438 7.1589899 7.37954 0.0150294 0.0132894 -0.0038122
18 1 3.6844599 7.31108 7.2476401 -0.0443892 -0.0374533 0.0097572
19 1 7.3010702 -0.0195334 0.070701 -0.0560182 -0.0654736 0.0042562
20 1 7.3150902 3.4988101 -0.0145617 0.0172962 0.053305 -0.0054646
21 1 7.0911698 10.9248 3.8543602 0.07725 0.0413776 -0.119421
22 1 7.17028 3.56687 3.7720101 0.0433681 -0.0277355 -0.0808565
23 1 7.3720698 10.9659004 7.4014001 -0.116435 -0.0471828 -0.0323875
24 1 7.1273699 3.8227401 7.27805 0.0422208 -0.0798933 0.0207699
25 1 7.39954 7.2284999 10.9575006 0.0354647 0.0181988 0.0036253
26 1 7.2979999 7.2859502 3.6091299 -0.0538647 0.0205494 -3.7527299e-04
27 1 7.3291702 7.2824402 7.2551499 0.0132099 0.0616911 -0.003877
28 2 1.95592 1.7401201 1.89704 -0.0762959 0.009042 -0.0595982
29 2 1.80012 1.96738 5.1572299 -0.0258913 -0.0759749 0.0890599
30 2 1.7418 1.6879601 8.7968197 -0.0144448 -0.0261377 0.0661476
31 2 1.9979 5.5310302 1.75483 -0.034005 -0.0016623 0.0267568
32 2 1.7133 9.2402001 1.85795 -0.0104825 -0.0032772 -0.0438758
33 2 1.64438 5.4402499 5.4661598 0.0265793 0.0069973 0.0026697
34 2 1.79816 9.3403902 5.3529 -0.0314951 -0.0344498 0.0469591
35 2 1.87175 5.5243502 9.4904099 0.0155002 -0.0326808 -0.0842674
36 2 1.91369 9.3470097 9.0759001 -0.0729185 -0.085549 -0.0510778
37 2 5.2501102 1.87095 1.74457 0.0570589 -0.0488385 0.0312403
38 2 9.2172299 1.7840901 1.75235 -0.0226458 0.0042645 0.0342883
39 2 5.3958902 1.73857 5.4801402 -0.0091646 0.0374099 0.0102574
40 2 9.1928101 1.605 5.5931301 -0.0584855 0.0411844 -0.0779733
41 2 5.52315 1.93477 8.9214602 -0.0278095 -0.0325038 0.0444571
42 2 9.1002197 1.44015 9.0594702 0.0211184 0.128586 0.0534996
43 2 5.6030503 5.4358101 1.8564302 -0.0286769 -0.001906 -0.0195752
44 2 9.1501904 5.5131502 1.9620302 -0.0124883 -0.0358601 -0.0533926
45 2 5.6374502 8.88587 1.69751 -0.0107565 0.0775618 0.0175136
46 2 9.1450195 9.0957003 1.83889 -0.0057502 0.001193 -0.0190121
47 2 5.2652302 5.3961101 5.3340902 0.0062641 0.0350187 0.0182566
48 2 8.9109002 5.52946 5.2955399 0.0569768 -0.0417207 0.059569
49 2 5.44343 9.1361103 5.43786 -0.0083363 -0.0366841 0.0317782
50 2 9.1344099 9.2466297 5.2750802 -0.0103107 -0.047584 0.0447542
51 2 5.6177202 5.53372 9.2524996 -0.0515732 -0.0116312 -0.0032585
52 2 9.2110796 5.4267802 9.2566795 0.0017444 -0.0176815 -0.0096923
53 2 5.4773999 8.9879104 9.0035696 0.0115125 0.0340722 0.0378316
54 2 9.2202797 9.0362902 9.0781298 -0.0098391 -0.0018429 0.0261388
