ITEM: TIMESTEP
164000
ITEM: NUMBER OF ATOMS
54
ITEM: BOX BOUNDS pp pp pp
-0.087672 10.9956522
-0.087672 10.9956522
-0.087672 10.9956522
ITEM: ATOMS id type x y z fx fy fz
1 1 10.8646002 -0.014585 -0.0274179 0.0489936 -0.0463083 0.0248736
2 1 3.55618 -0.0088565 10.8277998 -0.0165657 -0.0079824 0.031439
3 1 10.9497004 3.5636201 10.9452 0.0391627 0.0091208 0.0200421
4 1 3.7123401 3.68657 0.0875981 -0.0274117 -0.0414476 -0.0596313
5 1 -0.0194767 10.9836998 3.78931 -0.0038526 0.0037189 -0.0344685
6 1 3.6020999 -0.054286 3.4353099 0.0131496 0.01576 0.0224271
7 1 10.9063998 3.55264 3.75452 0.0148066 -0.0498338 -0.0570498
8 1 3.45889 3.8011 3.6457401 0.0646078 -0.0512532 0.0584336
9 1 10.8893004 -0.0414141 7.41681 0.0812265 -0.100413 -0.0552189
10 1 3.5578499 -0.0520326 7.24962 -1.00791e-04 -0.0195432 -0.0383285
11 1 -0.0110837 3.5735801 7.3525801 -0.0555055 0.0673127 0.0214381
12 1 3.7492001 3.5441301 7.3945899 -0.0349887 0.0445117 -0.0170624
13 1 10.8368998 7.3250299 10.9554006 0.0277064 -0.0065384 -0.0408013
14 1 3.5353799 7.35322 10.8759004 0.03417 0.00458 -0.0302769
15 1 0.0581856 7.0401301 3.4407401 -0.0088775 0.0788665 0.061646
16 1 3.74052 7.4433499 3.59424 -0.0231945 -0.0172126 -0.0600363
17 1 -0.0280576 7.1883998 7.19734 -0.0511614 0.061046 0.0315993
18 1 3.5690201 7.27565 7.0826802 0.0380472 0.0090204 0.133282
19 1 7.2776499 0.0061679 0.0313496 -0.0620197 -0.0299181 -0.1059
20 1 7.2866001 3.7487901 -0.0630561 -0.0027381 -0.0393292 0.0189646
21 1 7.26196 10.9287996 3.5548601 0.027245 -0.0066572 0.0268582
22 1 7.3204699 3.6092701 3.7423401 -7.8376899e-04 0.0068391 -0.0378509
23 1 7.42799 10.8689004 7.2349601 -0.11694 0.0572118 0.0169307
24 1 7.3888102 3.5597701 7.3544402 -0.0327327 -0.005916 -0.0300009
25 1 7.2808199 7.4159398 0.0437258 0.0017943 -0.0249703 -0.0633683
26 1 7.3342199 7.3232498 3.6421101 0.0078468 -0.0488686 -0.004863
27 1 7.3439698 7.3833299 7.2459698 -0.0057598 -0.0951071 0.0381259
28 2 1.77168 1.85385 1.94484 -0.0214378 -3.40309e-04 -0.034725
29 2 1.7508 2.0589399 5.6242399 0.0352626 -0.0763994 -0.0508596
30 2 1.54407 1.66639 8.99082 0.0736325 0.0218479 0.0715443
31 2 2.03 5.5327301 1.7241301 -0.0543677 0.0132147 -0.0153109
32 2 1.73158 8.9370404 1.54582 -0.0078244 0.0544277 0.0400976
33 2 1.80951 5.5043502 5.5964399 -0.0164373 -0.055851 -0.0538012
34 2 1.8251 9.1653004 5.34094 -0.0087941 -0.0085043 0.0162346
35 2 1.77359 5.4873901 9.3008804 -0.0110667 -0.019368 -0.0315386
36 2 1.4956501 9.1888905 9.1168299 0.0362653 -0.0116566 0.0054001
37 2 5.5848298 1.93269 1.95572 -0.0323656 -0.0128413 -0.0361571
38 2 8.9985104 1.6851501 1.64746 0.0428161 0.0605841 0.0650906
39 2 5.6314001 1.56137 5.2562299 -0.0533421 0.0385778 0.0683573
40 2 9.1970701 1.53771 5.61371 -0.0188503 0.0682577 -0.0583732
41 2 5.43008 1.75835 9.1054802 0.0327496 -0.013624 0.0189124
42 2 9.0920401 1.69222 9.0124102 -0.0100237 0.0243713 0.0592005
43 2 5.5026498 5.5249 1.86086 8.8199702e-04 -0.0019221 -0.0050929
44 2 9.3346396 5.33215 1.64877 -0.0455696 0.0131191 0.0333998
45 2 5.35887 9.1003799 1.49866 -0.0137458 0.0432714 0.0483363
46 2 9.2643204 9.1720696 2.2088599 0.0106075 -0.0166696 -0.103904
47 2 5.48836 5.4573899 5.3881502 -9.88439e-04 0.0011644 0.0206748
48 2 9.2245798 5.33812 5.4811902 -0.0202117 0.0309851 0.0123584
49 2 5.38971 9.12148 5.6339002 0.0268073 0.0309961 -0.0574117
50 2 9.1537199 9.00599 5.3254199 0.0313586 0.0194049 0.0495452
51 2 5.36408 5.4665699 9.15271 0.021828 0.0178435 -0.0020951
52 2 8.8962098 5.42487 9.1218901 0.0573865 0.0379087 0.006618
53 2 5.45747 9.1403999 8.93394 -0.0111711 0.0030762 0.0385634
54 2 9.10606 9.2396803 9.1387901 4.76405e-04 -0.028563 0.0237325
