ITEM: TIMESTEP
190000
ITEM: NUMBER OF ATOMS
54
ITEM: BOX BOUNDS pp pp pp
-0.0919704 10.9999504
-0.0919704 10.9999504
-0.0919704 10.9999504
ITEM: ATOMS id type x y z fx fy fz
1 1 -0.0298347 10.8065005 -0.0413699 0.0299715 0.128042 -0.0387751
2 1 3.7767301 10.7626 10.9610996 -0.0423183 0.0456904 0.0132995
3 1 10.8669996 3.51804 0.163132 0.0840781 -0.0093392 -0.062016
4 1 3.8290701 3.47105 10.9316998 -0.0507293 0.0343544 0.0344966
5 1 -0.0161452 0.0902529 3.61603 -0.0248971 0.0033375 -0.0057258
6 1 3.7543299 10.8957006 3.60336 -0.0546702 0.0441468 0.0198892
7 1 10.7634001 3.7513199 3.6863101 0.0845395 -0.0535407 -0.0200428
8 1 3.5119601 3.5034201 3.54091 -0.0148117 0.0147067 8.5068198e-04
9 1 10.9287996 0.0420643 7.44346 0.0327308 -0.0595878 -0.0561462
10 1 3.5669601 0.0077849 7.3350401 0.0306528 0.0014948 0.0064332
11 1 -0.0774509 3.5811401 7.2948198 0.0213586 -0.0130783 0.0434
12 1 3.7300101 3.73015 7.2190399 0.0023741 -0.0209635 0.0080694
13 1 10.8951998 7.3202601 10.9736004 -0.0188359 -0.102854 0.0137788
14 1 3.3125601 7.1626601 -0.0493353 0.0877178 0.0282283 -0.0033258
15 1 -0.0460202 7.3947601 3.53354 -0.125954 0.0158591 0.0221036
16 1 3.31544 7.33423 3.6896301 0.164547 -0.0418272 -0.0036554
17 1 10.9803 7.2473798 7.2765598 0.0227379 -0.0119801 -0.0315813
18 1 3.44575 7.5640002 7.2469502 0.0286186 -0.0828278 0.03018
19 1 7.3341699 10.9267998 -0.0283132 0.0572747 -0.0213354 -0.0554615
20 1 7.3759098 3.52194 10.8883 -0.0322234 0.0014138 0.0326228
21 1 7.2376499 10.8799 3.58936 0.0745718 -0.0015973 0.008716
22 1 7.1373701 3.6476901 3.57059 -0.0169543 0.0210255 0.0161592
23 1 7.22228 -0.020008 7.29916 0.0226637 -0.0298451 -0.0175084
24 1 7.4270201 3.7739699 7.2739802 -0.0370652 -0.0450854 -0.0310083
25 1 7.12043 7.1922302 -0.0885963 0.0494988 0.0462724 -0.015979
26 1 7.2979598 7.3273702 3.5562799 -0.0074923 -0.0036358 0.0425998
27 1 7.37923 7.3996501 7.3721299 0.0020003 -0.0207867 -0.0300826
28 2 1.82708 1.64165 1.6427701 0.0115059 0.0047512 0.0065509
29 2 1.9042702 1.6954301 5.6285301 -0.0385184 0.0402579 -0.0450007
30 2 1.94146 1.73989 9.3624601 -0.0372331 -0.0073884 -0.0263849
31 2 1.69915 5.4865799 1.8207701 -0.0223426 -0.0384745 0.0024397
32 2 1.80434 9.3043404 1.86779 -0.0036802 -0.0238678 -0.017327
33 2 1.62313 5.2550802 5.5237999 0.0324214 0.0464623 -0.0281592
34 2 1.53503 9.4709101 5.47434 0.0366192 -0.0510417 0.0165153
35 2 1.93571 5.37219 9.0425797 -0.0419551 -0.0023508 0.0056918
36 2 1.74238 9.21525 9.1241903 -0.007517 -0.0064849 0.0056498
37 2 5.7146001 1.6529501 1.6898201 -0.0660656 0.0182232 0.0102121
38 2 8.94209 1.87759 2.0239 0.0388559 -0.0377129 -0.0677333
39 2 5.6672502 1.6929801 5.3659601 -0.0594213 0.0221136 0.0167193
40 2 8.94936 1.6905101 5.1473999 0.0265513 0.0188646 0.0852823
41 2 5.4932499 1.76401 9.0819798 0.0080914 -0.0062307 -0.0038341
42 2 9.0212297 1.67415 8.95541 0.0040301 0.0409816 0.063365
43 2 5.4973798 5.54985 1.76805 -0.0505979 -0.0317992 0.0117989
44 2 8.95284 5.4457102 1.83812 0.0244941 0.0074477 -0.0310214
45 2 5.47225 9.0759201 1.78826 -0.0112433 -0.0167664 -0.0064684
46 2 9.3600397 9.2572298 1.7099201 -0.0685209 -0.0334342 0.0538268
47 2 5.57339 5.5483198 5.5886002 -0.0177904 0.0164754 -0.0300441
48 2 9.1613398 5.5268698 5.2784801 -0.043241 0.0437909 0.0628601
49 2 5.4913802 8.9875898 5.6060901 0.0019542 0.0411139 -0.0463501
50 2 9.2298002 9.2126103 5.47049 -0.0095359 0.0020489 -0.0038319
51 2 5.32724 5.7786598 9.0590296 -0.0072319 -0.0451109 -0.0091986
52 2 9.24996 5.1851101 9.2112503 0.0117166 0.0631545 0.0028559
53 2 5.5013399 9.1359501 8.9901104 -0.0107751 0.0101353 0.0315202
54 2 9.4040203 8.9912996 9.0520897 -0.0699554 0.058554 0.018775
