ITEM: TIMESTEP
146000
ITEM: NUMBER OF ATOMS
54
ITEM: BOX BOUNDS pp pp pp
-0.0499794 10.9579592
-0.0499794 10.9579592
-0.0499794 10.9579592
ITEM: ATOMS id type x y z fx fy fz
1 1 0.0163988 10.7360001 -0.0342348 0.0258604 0.0649547 -0.0075168
2 1 3.6240001 -0.0264054 10.8610002 -0.0147899 -0.009899 -0.0316346
3 1 -0.024211 3.50859 0.0287065 -0.0343693 0.0396474 -0.0130424
4 1 3.59143 3.6579399 0.0781578 0.0227599 -0.0371911 0.020314
5 1 -0.0181587 10.9336004 3.5515499 0.0508178 0.0654848 0.0482025
6 1 3.6348501 10.8731004 3.57252 -0.0255546 0.0180918 -0.021599
7 1 10.8883 3.5171399 3.52562 0.0454725 0.0437371 0.0951977
8 1 3.6015501 3.66693 3.8268399 0.0109523 -0.0288507 -0.0418771
9 1 -0.0338555 0.0058836 7.3305402 0.0114346 -0.0196863 0.0045565
10 1 3.6236899 10.8028002 7.1140099 0.0337693 0.0425509 0.0497586
11 1 -0.0201182 3.6084299 7.2687001 -0.0144705 0.0319139 -0.0116118
12 1 3.6505001 3.5298701 7.3646102 -0.0415357 0.0172342 -0.0269618
13 1 10.9395 7.1015101 10.8247996 0.042149 0.0044844 0.0514958
14 1 3.7757499 7.1673999 10.8804998 -0.0501255 0.0771891 0.0489099
15 1 -0.0595029 7.28475 3.5585599 -0.0641993 -0.0458869 0.0411232
16 1 3.5413499 7.2640901 3.7964499 0.0248304 -0.0152985 -0.0926339
17 1 10.8499002 7.2768002 7.3131099 -0.0075562 0.0250424 -0.0513479
18 1 3.4380901 7.2737899 7.28227 0.0965704 -0.0648024 0.008889
19 1 7.3397799 0.183175 0.07966 -0.0033271 -0.0383064 -0.0717923
20 1 7.1690998 3.8134699 10.7897997 0.0462769 -0.0355471 0.146947
21 1 7.22719 -0.103347 3.6254699 -0.0030737 0.0929437 0.0349441
22 1 7.35285 3.7121401 3.6101799 -0.0561894 -0.0137174 -0.0170449
23 1 7.38413 -0.055158 7.4873801 -0.0234649 0.0084376 -0.0458365
24 1 7.3206301 3.6227801 7.4053602 -0.0013457 -0.0446218 -0.145989
25 1 7.3459401 7.3823099 10.8603002 0.0028348 0.012647 0.0128831
26 1 7.2330299 7.4382901 3.4895001 0.0315514 -0.0786629 -0.0080746
27 1 7.1926699 7.2499299 7.1644402 0.0263815 0.0488134 0.0531235
28 2 1.91947 1.88655 1.89822 -0.0176981 -0.0340728 -0.007381
29 2 1.8091001 1.7706601 5.6778798 -0.0022098 -0.0013093 -0.0590702
30 2 1.7459901 2.0426099 9.2532501 0.0278322 -0.0834926 -0.0345802
31 2 1.7215801 5.40658 1.88976 0.0184651 0.0016315 -0.0127118
32 2 1.7246 8.7809897 1.7638101 0.0405823 0.0513261 -0.0304484
33 2 1.7568901 5.4990802 5.6084399 -0.0249806 -0.03128 -0.0332146
34 2 1.58336 9.0732498 5.4017801 0.0241969 0.0113903 0.0174773
35 2 1.92801 5.3299399 9.2307596 -0.043243 0.0194502 -0.0281559
36 2 1.86112 8.98664 8.9718704 -0.044303 0.0497813 0.064563
37 2 5.3036099 1.72026 1.77439 0.024905 0.03388 0.0192823
38 2 9.1093397 1.8296 1.73902 0.0054385 0.0026296 0.0250018
39 2 5.5968399 1.8846 5.56912 -0.0150767 -0.027035 -0.019444
40 2 8.9798498 1.75062 5.3045402 0.0303129 0.005593 0.0363331
41 2 5.3783302 1.88545 9.0588102 0.0245461 -0.0507349 0.0397078
42 2 9.2887402 1.93341 9.1907902 -0.0397701 -0.042354 -0.0093064
43 2 5.4430599 5.5004902 1.87723 -0.002554 -0.0061116 -0.0029648
44 2 9.1784601 5.44874 1.75268 -0.0213311 0.0041996 -0.00596
45 2 5.4781399 9.3088904 1.52275 -0.0023785 -0.0461262 0.0373428
46 2 9.2214403 9.3357601 1.93681 -0.0576634 -0.0733823 -0.0585336
47 2 5.5995498 5.4298001 5.54491 -0.055742 -0.022724 -0.0365503
48 2 9.0106297 5.5734501 5.4910598 0.0312122 -0.0269165 -0.0308738
49 2 5.4772301 8.9785204 5.3433299 -0.0159699 0.0424989 0.0344163
50 2 9.1953602 9.4032402 5.3975001 -0.0213547 -0.0612035 0.0265558
51 2 5.2811399 5.3059502 9.0174904 0.0337551 0.0615905 0.0034916
52 2 9.0754404 5.3829899 8.9277698 0.0279962 0.0390038 0.0531806
53 2 5.5293699 9.0266705 8.9517604 -0.0319835 0.0161402 0.0283079
54 2 9.2221899 9.1109695 9.2679901 -0.0246431 0.006926 -0.0458478
