ITEM: TIMESTEP
188000
ITEM: NUMBER OF ATOMS
54
ITEM: BOX BOUNDS pp pp pp
-0.0717163 10.9796964
-0.0717163 10.9796964
-0.0717163 10.9796964
ITEM: ATOMS id type x y z fx fy fz
1 1 10.8498002 0.101976 -0.0324482 0.0298275 -0.0918676 -0.0276005
2 1 3.51561 0.0903649 10.7814999 0.0241394 -0.0438436 -0.0123617
3 1 -0.0640451 3.52313 -0.0044197 -0.0179749 0.0639313 -0.0882672
4 1 3.62742 3.67943 0.0676318 -0.0518456 0.0371483 -0.0421954
5 1 10.8968 0.24757 3.4814999 0.0460854 -0.0809122 0.0664545
6 1 3.6219599 10.8112002 3.49085 -0.0105091 0.0551402 0.0169992
7 1 0.0549553 3.75188 3.39502 -0.103701 -0.0128774 0.154462
8 1 3.58636 3.5209501 3.71871 0.079645 0.0433788 0.0323673
9 1 10.9632998 -0.061616 7.4109602 -0.0580774 -0.0340708 -0.0573533
10 1 3.4904201 0.082917 7.0033698 0.0550604 -0.105621 0.126582
11 1 10.9283 3.5952101 7.22228 0.0877857 -0.0299637 -0.0120314
12 1 3.82477 3.60705 7.4627099 -0.0674045 0.0078155 -0.0440059
13 1 10.7719002 7.4261499 10.9343004 0.0392169 0.0125051 0.017924
14 1 3.2848101 7.37711 10.8711004 0.0823705 -0.0190114 0.0274352
15 1 0.0023097 7.4553099 3.64694 0.0615345 -0.0430086 -0.0830647
16 1 3.7943201 7.3292198 3.5246501 -0.158315 -0.0490091 0.0990374
17 1 0.144503 7.11344 7.3368902 -0.101405 0.0439714 0.00612
18 1 3.5583401 7.2398801 7.15621 0.0986489 -0.0045334 0.062326
19 1 7.29738 -0.0371264 -0.0373137 -0.0564152 -2.34235e-04 -0.0535682
20 1 7.1043 3.7021501 0.0494863 0.0928401 0.0225949 0.0322121
21 1 7.3649502 0.0284224 3.50492 -0.0723801 -0.0872206 0.0586191
22 1 7.37292 3.59774 3.8457502 -0.0299941 -0.0312572 -0.0711583
23 1 7.0885601 10.8999004 7.27285 0.0559678 0.0120521 0.0301798
24 1 7.4622002 3.6630001 7.3410301 -0.0642673 -0.025042 0.0104707
25 1 7.2053399 7.4398299 0.0074481 -0.0373702 -0.0554791 -0.0473245
26 1 7.40833 7.0803299 3.52543 0.0428763 0.0988522 0.0759678
27 1 7.4236398 7.2395601 7.2967301 -0.0319711 -0.0437162 -0.0358651
28 2 1.96129 1.7771601 1.8745 -0.0569564 -0.0031284 -0.0355915
29 2 1.8605602 1.7664501 5.38374 -0.0823932 0.0406862 -0.0269855
30 2 1.6894 1.76568 8.95963 0.0171845 0.0313212 0.0310449
31 2 1.8494 5.3578901 1.8691 0.0355686 0.0809859 -0.0505707
32 2 1.7809301 9.3199196 1.65195 -0.0333438 -0.0166918 0.0015497
33 2 1.8018301 5.4970999 5.2711001 0.0059217 -0.0098374 0.0191921
34 2 1.8613 9.0438099 5.5454102 -0.0272679 0.0291611 -0.0407191
35 2 1.63125 5.30792 9.3537798 0.0183322 0.0083783 -0.0367101
36 2 1.68505 9.2135401 9.0893097 0.0026714 0.0028795 -0.003427
37 2 5.0896101 1.75492 1.78027 0.107866 -0.0156647 0.0023266
38 2 8.8049202 1.90193 1.71777 0.0704019 0.0174695 0.0017991
39 2 5.5065599 1.5556801 5.3491802 -0.009523 0.0512618 -0.0077899
40 2 9.05966 1.55679 5.5673599 0.0076073 0.0281 0.0063946
41 2 5.6848002 1.92983 9.1799002 -0.0366835 -0.045083 -0.0058201
42 2 9.0571899 1.96434 9.1668301 0.0167614 -0.0413661 0.0199062
43 2 5.3976102 5.5440898 2.0455101 0.0342892 -0.108386 -0.103435
44 2 9.2523203 5.4823299 1.5766 -0.0296081 -0.0069549 0.0356281
45 2 5.4854203 9.0064898 1.96936 0.0568636 0.06632 -0.0759416
46 2 9.09653 9.1593504 1.89631 0.0118015 0.0039941 -0.0181634
47 2 5.4892602 5.5132299 5.5352502 0.0063386 -0.0250684 -0.0128274
48 2 9.2131796 5.4060402 5.4035101 0.0247626 0.0229564 0.0091267
49 2 5.5794902 8.8895904 5.5825601 -0.0151744 0.0324398 -0.0497301
50 2 9.5210305 8.95286 5.5331803 -0.083699 0.0637995 0.0375973
51 2 5.6258202 5.3347402 9.0957003 -0.0228868 0.0674573 0.0151786
52 2 9.1824398 5.46874 9.2325697 -0.0109969 -0.0126841 -0.008226
53 2 5.3295598 8.9110298 9.0889101 0.0025731 0.0311159 -0.0031744
54 2 8.96521 9.0005798 8.9448996 0.0552208 0.0668164 0.0570069
