ITEM: TIMESTEP
178000
ITEM: NUMBER OF ATOMS
54
ITEM: BOX BOUNDS pp pp pp
-0.0899205 10.997902
-0.0899205 10.997902
-0.0899205 10.997902
ITEM: ATOMS id type x y z fx fy fz
1 1 10.9735004 -0.0186618 10.8050003 0.0175094 -0.0162893 0.0111434
2 1 3.6034601 0.0228067 10.8521996 0.0492507 -0.0750315 0.0735444
3 1 10.9169998 3.7156501 -0.0737004 -0.0516812 -0.0523153 -0.0766424
4 1 3.5339101 3.63794 -0.0652391 0.0537018 0.0042494 -0.0931858
5 1 10.9386998 -0.0082064 3.52914 0.0159274 -0.0129154 -0.0266415
6 1 3.6571 10.7986002 3.50523 -0.0581098 0.121737 0.0542955
7 1 0.0664442 3.5511701 3.3882401 -0.0863385 0.0380192 0.103398
8 1 3.60377 3.2876799 3.4530201 0.0481175 0.0709134 0.0682518
9 1 -0.0459345 10.9497004 7.0556402 0.0210019 0.0666473 0.0597046
10 1 3.71871 10.9555998 7.2672501 -0.0065579 -0.057976 -0.0329229
11 1 -0.0552575 3.57548 7.1608701 -0.0223974 -0.0037153 0.067081
12 1 3.66253 3.3527401 7.3807902 -0.0257251 0.0776 -0.0358377
13 1 10.8869 7.3222799 -0.0559415 0.0894161 0.0312835 -6.09516e-04
14 1 3.73333 7.3083601 -0.0303097 -0.0465265 -0.0221812 0.0153827
15 1 -0.0839656 7.4816399 3.67784 -0.0167752 -0.0596596 -0.0445733
16 1 3.6614101 7.3385401 3.6877101 -0.0497001 -0.118817 -0.023679
17 1 -0.0849311 7.4800301 7.2198801 0.0233544 -0.0877641 0.0865226
18 1 3.6024599 7.1085401 7.3898101 -0.0430162 0.0501227 -0.0145195
19 1 7.2936802 0.195975 0.0651967 0.0272331 -0.158722 -0.0423148
20 1 7.1072402 3.71361 10.9533998 0.0646387 0.0656104 0.0505324
21 1 7.2068501 10.8621998 3.9165102 0.0132845 0.0683249 -0.095056
22 1 7.3838201 3.7198301 3.77667 0.0042404 -0.0069831 -0.0727724
23 1 7.4456702 0.0691269 7.3877702 -0.0179241 -0.0714876 0.0576698
24 1 7.31704 3.63727 7.3445101 -0.0227698 -0.0097523 -0.0321233
25 1 7.3503399 7.4961601 10.9125996 -0.0689626 -0.0613784 0.0545973
26 1 7.23628 7.3367701 3.5826199 0.0303169 -0.0363619 -0.0171116
27 1 7.3669701 7.2354999 7.2519698 -0.0582719 0.0237226 0.0183418
28 2 1.75375 1.8592 1.41447 -0.0302239 -0.0660116 0.0529043
29 2 1.74206 1.96397 5.4422102 0.0129313 -0.0666879 -0.0167894
30 2 1.92535 1.67027 9.1575899 -0.0709588 0.0318037 -0.040654
31 2 1.82689 5.1786199 1.68713 -0.0026666 0.111672 0.0288637
32 2 1.7149 9.2223997 1.86527 -0.0071978 -0.0175373 -0.0476673
33 2 1.70642 5.4393301 5.5299101 0.0200838 0.0066561 -0.0251423
34 2 1.86194 9.1217699 5.4211102 0.0017058 0.0111408 0.0130459
35 2 1.4612301 5.40275 9.2469902 0.053091 0.0279453 -0.0418413
36 2 1.92368 8.9916402 9.2443304 -0.0269726 0.0207591 -0.0151664
37 2 5.6971898 1.74566 1.87902 -0.0496184 0.028213 0.0386145
38 2 9.2617502 1.6661201 1.6429301 0.0023195 0.0580419 0.0368235
39 2 5.5521798 1.9612402 5.4829402 -0.0075411 -0.0487299 -0.0060897
40 2 9.0233803 1.7682801 5.3467698 0.0473937 0.0029222 0.020564
41 2 5.6795502 1.70327 9.22544 -0.0707888 0.0244406 -0.0388907
42 2 9.0717001 1.98935 9.2355204 0.0240138 -0.0221529 -0.00747
43 2 5.4590702 5.30755 1.91684 -0.0127385 0.0243903 -0.0081348
44 2 9.2360201 5.5835099 1.70142 -0.0394709 -0.0192012 0.0358327
45 2 5.2933502 9.20786 1.7491601 0.0737184 -0.0242435 -0.0391658
46 2 8.90162 9.3080797 1.81485 0.0344201 -0.0092669 2.5368302e-04
47 2 5.3035998 5.4452701 5.5791002 0.0280142 -0.0256737 -0.0302981
48 2 9.3627901 5.4586902 5.56215 -0.0333905 0.011573 -0.040772
49 2 5.3980398 9.0228596 5.5043402 0.0069198 0.0014885 0.0287733
50 2 8.9930096 9.0515499 5.57161 0.0284355 0.0311598 -0.0289689
51 2 5.23212 5.2743001 9.01789 0.0544924 0.0201713 0.0466411
52 2 9.0109396 5.3606 8.9699898 0.0569437 0.0396146 0.059189
53 2 5.42411 9.0322504 9.0835896 0.0099965 0.0256635 -0.0055694
54 2 9.1578598 9.1087999 9.3401804 0.0138518 0.0549688 -0.0813614
