ITEM: TIMESTEP
160000
ITEM: NUMBER OF ATOMS
54
ITEM: BOX BOUNDS pp pp pp
-0.0588212 10.9668026
-0.0588212 10.9668026
-0.0588212 10.9668026
ITEM: ATOMS id type x y z fx fy fz
1 1 -0.0241191 0.0780261 10.9445 -0.0713128 -0.0778577 0.0624978
2 1 3.4712 -0.0167424 10.8108998 0.0774965 0.0400663 0.0502683
3 1 -0.0341681 3.5825401 0.0112732 0.0158061 0.0779409 -0.0185826
4 1 3.77857 3.63674 10.9172002 -0.0508926 0.0399696 -0.008677
5 1 10.9579 -0.0442236 3.61288 -0.0242162 0.0225132 0.0120225
6 1 3.5177 10.962 3.6767099 0.0132881 -0.0448482 -0.0581744
7 1 0.133653 3.73713 3.58744 -0.0119182 -0.0585491 0.0117252
8 1 3.86231 3.5250001 3.5555301 -0.0260446 0.0560604 0.0462824
9 1 10.9790002 10.8366003 7.3678298 0.0081696 0.0951207 -0.0838107
10 1 3.5293701 -0.0323009 7.2157202 0.0020575 0.0303458 -0.0332278
11 1 10.9952002 3.5335801 7.2824102 -0.0808796 -0.042522 0.0295765
12 1 3.5122001 3.6389699 7.2326598 0.0233668 -0.0214809 0.0218099
13 1 10.7854996 7.4208498 0.150771 0.0351205 -0.0335876 0.0298786
14 1 3.56109 7.5302801 -0.0247179 -0.0139671 -0.0943821 -0.0450343
15 1 -0.0377254 7.3294702 3.7409799 -0.0123098 0.0162196 -0.0264681
16 1 3.60392 7.1876998 3.58457 0.0079283 -0.0055995 -1.2038801e-04
17 1 0.069129 7.1068802 7.7902999 -0.118079 0.0251501 -0.1758
18 1 3.5586801 7.27735 7.2635899 0.0481817 -0.0169677 0.0163027
19 1 7.27879 10.9485998 10.8990002 -0.0219891 0.0183248 0.0224824
20 1 7.3158999 3.62993 10.8627996 -0.0029127 -0.0456817 0.0680739
21 1 7.10635 10.9178 3.62062 0.0774341 -0.0089704 -0.0120304
22 1 7.55021 3.6155701 3.8129001 -0.0502689 -0.0082276 -0.0457088
23 1 7.3361802 -0.011622 7.2746301 -0.045129 -0.0084989 -0.0099491
24 1 7.1091299 3.6437099 7.27353 0.0878177 -0.0637798 -0.0215371
25 1 7.17343 7.2938099 10.7178002 0.0115424 0.0117069 0.0596455
26 1 7.29668 7.19697 3.61378 4.0770597e-04 0.0400443 -0.0363205
27 1 7.2785201 7.1556401 7.1779399 0.0445987 0.0957265 -0.0241095
28 2 2.07636 1.97324 1.77315 -0.0619698 -0.0394012 -0.0119145
29 2 1.84329 1.79087 5.3748698 -0.0254178 0.0081086 0.0100927
30 2 1.5917 1.76827 9.17099 0.0604966 0.0303443 -0.0391168
31 2 1.7748801 5.5391999 1.7904101 0.0103591 -0.003899 -0.0239276
32 2 1.8115601 9.0803299 1.89406 -0.0225684 0.0264665 -0.0070428
33 2 1.6388201 5.2514901 5.6792598 0.0501956 0.103964 -0.0633017
34 2 1.82046 8.7998696 5.4488201 -0.013365 0.0820967 0.0209391
35 2 1.94195 5.5419102 9.3158102 0.0213648 -0.0559316 0.0285358
36 2 1.72981 9.2146196 8.9257498 0.0645506 -0.0197188 0.0952314
37 2 5.4239602 1.71187 1.83902 0.030764 -0.0152611 -0.0460468
38 2 9.0756598 1.9199 1.86019 0.0140471 -0.0344788 -0.0173542
39 2 5.49014 1.67828 5.45572 -0.0153759 0.0215869 0.0060864
40 2 9.2058897 1.71391 5.5226302 0.0039994 -0.0012838 -0.00377
41 2 5.27877 1.91927 8.91037 0.0266266 -0.0540672 0.0392208
42 2 9.2284699 1.8411602 9.0688105 -0.0329819 -0.0180981 0.0087272
43 2 5.5722199 5.3667898 1.71849 -0.0031441 0.0205303 0.0077986
44 2 9.0530796 5.3987298 1.86555 0.0236324 0.0113494 -0.0269573
45 2 5.3585 9.0566502 1.82442 0.0239483 0.0230321 -0.0013892
46 2 9.1565399 9.25737 1.7976201 -0.036911 0.008295 0.0199613
47 2 5.2680502 5.4573899 5.4323502 0.0382205 -0.0058348 0.0038165
48 2 9.4611798 5.64181 5.53337 -0.066883 -0.0508358 0.0311915
49 2 5.3532 9.0177403 5.3460698 0.0111914 0.0098988 0.0224678
50 2 9.26509 9.14293 5.7251702 -0.0315062 -0.0420772 -0.0631712
51 2 5.5258899 5.4948001 8.8567306 -0.0736315 -0.0011185 0.0777954
52 2 9.0794897 5.1911802 9.1317301 0.0259569 0.0529945 -0.0206518
53 2 5.2185602 9.2722197 8.8238096 0.0674915 -0.0375408 0.0614797
54 2 9.09447 9.2805405 8.9951096 -0.0123863 -0.0573566 0.0602849
