ITEM: TIMESTEP
168000
ITEM: NUMBER OF ATOMS
54
ITEM: BOX BOUNDS pp pp pp
-0.0955616 11.0035419
-0.0955616 11.0035419
-0.0955616 11.0035419
ITEM: ATOMS id type x y z fx fy fz
1 1 0.055331 -0.0881742 10.8979998 -0.0123812 -0.0105217 0.0410327
2 1 3.6917801 10.8485004 10.8504 0.0055534 0.0423661 0.0307555
3 1 10.9083996 3.4308601 0.0076749 -0.0053448 0.0782622 -0.0504961
4 1 3.6448901 3.5606501 -0.080935 -0.0234483 0.0061607 -0.0149732
5 1 -0.024593 10.9483996 3.7948501 -0.0037884 0.0610456 -0.0938567
6 1 3.74591 0.00277 3.5051201 -0.0732925 -0.0253572 0.0087948
7 1 10.8520002 3.71133 3.69098 0.132028 -0.0874606 0.064988
8 1 3.74825 3.6133001 3.46662 -0.136689 0.0078529 0.0033371
9 1 0.0118139 10.8543998 7.2843599 -0.0341541 0.0753051 0.0282048
10 1 3.6411801 0.010584 7.2670798 0.0119203 -0.0197825 -0.0209191
11 1 -0.0070039 3.6445999 7.3720298 -0.0155283 0.0074484 -0.0166198
12 1 3.5639301 3.6894801 7.1353102 0.0416416 -0.0426036 0.0730355
13 1 10.9468002 7.2190299 -0.0923776 -0.0563752 -0.0043597 0.0293052
14 1 3.3703301 7.2314701 10.9730998 0.113248 0.0345084 0.0201017
15 1 -0.0057528 7.3786202 3.5843599 -9.9439306e-04 -0.039541 0.013508
16 1 3.65732 7.34657 3.6103001 -0.0849107 0.0099583 -0.0208027
17 1 10.9714004 7.3207002 7.2662301 -0.0411321 -0.0403116 -0.0152956
18 1 3.7369001 7.2505002 7.3411799 -0.0604434 0.0766224 0.0072211
19 1 7.5255299 10.8400002 -0.0554136 -0.0495049 0.0818676 0.0156375
20 1 7.2841001 3.65936 -0.0566332 0.0137302 -0.0196182 0.0482191
21 1 7.3187099 -0.0640568 3.6715701 0.0117315 -0.0134979 -0.0348778
22 1 7.2121101 3.69834 3.7642501 0.0231518 -0.0906868 -0.0402106
23 1 7.336 -0.0514443 7.2974701 -0.0060101 -0.0547934 0.0193009
24 1 7.3011799 3.5087099 7.4682498 -0.0183786 0.0472159 -0.0794748
25 1 7.3166199 7.2926002 10.9112998 -0.0263639 -0.0303015 0.0368493
26 1 7.3081699 7.2139902 3.53881 0.0073875 0.0831424 -0.0131827
27 1 7.2512498 7.1856198 7.2484598 0.0242218 0.0356849 -0.0185102
28 2 1.5817501 1.87565 1.7863801 0.0411142 -0.0329543 0.0305148
29 2 1.73294 1.92623 5.3992801 0.0043437 -0.0206467 -0.0063316
30 2 1.9062002 1.80505 9.2571297 -0.0192946 -0.0041614 -0.0296033
31 2 1.7067501 5.3825302 1.5233901 -0.00992 -0.0158185 0.0699839
32 2 1.69873 9.3119497 1.67776 0.0210224 -0.0252609 0.0199896
33 2 1.77308 5.5924702 5.7472601 -0.0170817 -0.0011758 -0.0776444
34 2 1.85841 9.2648602 5.4355002 0.0251714 -0.0351034 0.005356
35 2 1.67672 5.43361 9.3565102 -0.0091867 -0.0387046 -0.0626018
36 2 1.5159201 8.9129 9.1028795 0.0761318 0.0369992 0.0199011
37 2 5.5720601 1.7305401 1.81818 0.0118089 0.0069798 -0.0346286
38 2 9.1287098 1.8072 1.91746 -0.007939 -0.018288 -0.005112
39 2 5.36268 1.91201 5.4124599 0.0243996 -0.0344447 0.0187152
40 2 9.1745796 1.63625 5.3990998 0.0025337 0.0320672 0.0248533
41 2 5.4229598 1.89682 9.2750197 0.0104372 -0.0431349 -0.0244733
42 2 9.3154698 1.83019 8.8166304 -0.0055417 -0.060982 0.0797606
43 2 5.4098802 5.5908399 1.8379101 0.0073746 -0.0222065 -0.0502792
44 2 9.1968098 5.2900901 2.06181 -0.0579451 0.0811651 -0.119306
45 2 5.2270899 9.0512505 1.68154 0.0501128 0.0057929 -0.0066597
46 2 9.3734703 9.2375698 1.88261 -0.0268981 -0.0068628 -0.0204419
47 2 5.2168298 5.4815603 5.2653699 0.0620477 0.0031168 0.0555307
48 2 8.9631004 5.4130402 5.3663602 0.0480196 0.0282735 0.0660098
49 2 5.4148202 9.1267204 5.2705498 0.0202567 0.0126027 0.0396316
50 2 8.95115 9.0562296 5.3579002 0.0339198 0.0048273 0.0240382
51 2 5.42449 5.3566899 9.1003199 -0.0027416 0.0108481 0.0184719
52 2 9.07547 5.51474 9.0333204 0.0240838 -0.0177327 0.0225626
53 2 5.5825701 9.0973997 9.2073298 -0.011682 0.0045631 -0.0287738
54 2 9.3407202 9.1747398 9.3137598 -0.0304209 -0.0183639 -0.0505354
