ITEM: TIMESTEP
114000
ITEM: NUMBER OF ATOMS
54
ITEM: BOX BOUNDS pp pp pp
-0.1110959 11.0190763
-0.1110959 11.0190763
-0.1110959 11.0190763
ITEM: ATOMS id type x y z fx fy fz
1 1 10.9474002 0.100816 -0.0167822 0.0482136 -0.060128 0.0052283
2 1 3.5885101 0.0613436 -0.076596 0.0103369 -0.0316855 0.0193577
3 1 10.9694996 3.7439401 -0.0158648 0.0496845 0.0010617 0.0060613
4 1 3.61465 3.6758201 10.9122 -0.0234234 -0.0076081 0.0761149
5 1 10.7972002 10.8858004 3.7762001 0.0639617 0.0303755 -0.0190672
6 1 3.55738 -0.0708371 3.61322 -0.0118785 0.0278327 -0.0226262
7 1 -0.10382 3.72397 3.76646 -0.0573172 -0.0744708 -0.0479698
8 1 3.5513201 3.7630401 3.6206601 -0.02353 -0.0477167 -0.0295818
9 1 0.069549 10.8803998 7.4260803 -0.0593544 0.0352808 -0.0296833
10 1 3.7184501 0.0379357 7.3280802 0.0547781 -0.0463652 -0.0331523
11 1 0.0025166 3.31918 7.2991099 -1.6656599e-04 0.0855994 0.0383824
12 1 3.75138 3.6489401 7.2522702 -0.0652149 8.8371306e-04 -0.0354831
13 1 -0.103478 7.4365001 10.9645996 -0.0011949 -1.7067801e-04 0.0066804
14 1 3.5476699 7.4083901 11.0015001 0.0305558 -0.0132908 -0.0257158
15 1 10.9927998 7.2804499 3.49313 -0.0359055 0.0541293 0.0779938
16 1 3.49332 7.3359699 3.55141 0.0149983 0.0225183 0.019873
17 1 11.0177002 7.3429899 7.4141302 0.0280334 -0.0551222 -0.0643522
18 1 3.67452 7.43362 7.2424202 -0.0207462 -0.0176789 0.0134218
19 1 7.2964001 10.7935 10.96 -0.0109792 0.0219301 0.0203054
20 1 7.4221602 3.3724799 -0.128084 -0.0271595 0.0362038 0.0424028
21 1 7.2035699 11.0084 3.5548401 -0.005143 -0.0473975 2.17028e-04
22 1 7.07444 3.4670401 3.59181 0.103978 0.0591092 -0.0138367
23 1 7.43502 10.9358998 7.2249098 0.0057901 0.048316 0.0021842
24 1 7.3436599 3.6282401 7.40129 0.0128771 -0.054419 -0.0191225
25 1 7.4098501 7.0636201 10.9839002 -0.043685 0.0291916 -0.05183
26 1 7.2070899 7.2161498 3.4481499 0.0090341 0.0466995 0.052382
27 1 7.3531799 7.1963701 7.2251802 -0.021465 0.0150249 0.026804
28 2 1.45391 1.86341 2.01244 0.0343217 -0.0225052 -0.0259326
29 2 1.7432601 1.73685 5.4070001 0.0143706 -0.0110441 -0.0016609
30 2 2.00401 1.64704 9.0075998 -0.0593025 0.0657256 0.045628
31 2 1.52029 5.50346 1.9224 0.0645088 -0.0234837 -0.0665846
32 2 1.7097501 9.1610498 1.59742 -0.0029768 0.0275863 0.0321906
33 2 1.6822701 5.4688401 5.4867502 0.0143851 0.0185541 0.022153
34 2 1.98182 9.3459997 5.50066 -0.04013 -0.0295575 0.0015113
35 2 1.88126 5.4443898 9.1134701 -0.0314288 0.0104221 -0.0091632
36 2 1.8836402 9.4832497 9.2551298 0.0065934 -0.0673199 0.0134652
37 2 5.48947 1.6726901 1.67895 -0.013412 0.008601 5.9587002e-04
38 2 9.0601997 1.56202 1.81362 2.11794e-04 0.033764 0.0108276
39 2 5.43714 1.81695 5.4168601 -0.0100124 -0.0291551 0.0212079
40 2 9.1193504 1.70225 5.4221301 -0.0057417 0.0143885 0.0085122
41 2 5.4954 1.90255 9.2556 -0.0059242 -0.0447379 -0.0293599
42 2 9.40061 1.8180701 9.2281704 -0.0443442 -0.0202998 -0.0220556
43 2 5.43118 5.53617 1.70321 -0.0230427 -0.0308183 -0.0149943
44 2 9.10044 5.5411401 1.83472 0.0215822 -0.0509433 -0.0103105
45 2 5.2600298 9.13169 1.77287 0.0277341 0.0143768 -0.0080102
46 2 9.2171602 9.1275997 1.75572 -0.0230425 0.0029945 -0.010492
47 2 5.55686 5.5234099 5.3958101 -0.0275986 -0.0121187 0.0064631
48 2 9.15555 5.1693602 5.5521798 -0.0083998 0.0494574 -0.0021116
49 2 5.4918599 9.31637 5.51154 -0.0086504 -0.0284475 -0.0211935
50 2 9.0415697 8.8217097 5.3661599 0.0171811 0.0370301 -0.0034319
51 2 5.2181702 5.3908401 9.0973501 0.077138 0.0601011 0.0149641
52 2 9.3322296 5.3617401 9.1084805 -0.0153095 0.0063356 -0.0025139
53 2 5.5722299 9.2128801 8.9953004 -0.0220799 -0.0194714 0.0159066
54 2 9.0089598 9.1288796 9.05474 0.0382908 -0.0175379 0.0194009
