ITEM: TIMESTEP
182000
ITEM: NUMBER OF ATOMS
54
ITEM: BOX BOUNDS pp pp pp
-0.1122393 11.0202198
-0.1122393 11.0202198
-0.1122393 11.0202198
ITEM: ATOMS id type x y z fx fy fz
1 1 10.7729998 10.9755002 -0.0594052 0.0195741 0.0132829 -0.0415806
2 1 3.39376 10.9482002 -0.0475244 0.0313143 0.0609936 -0.0038568
3 1 11.0211 3.58077 -0.117735 -0.0253944 0.0269111 0.0119219
4 1 3.6124499 3.46752 10.934 0.006326 0.0246536 0.0598779
5 1 0.128782 10.8267002 3.4680901 -0.143701 0.046983 0.0604166
6 1 3.5281999 10.9281998 3.7969001 0.118053 0.0366305 -0.0709073
7 1 -0.140937 3.49016 3.6451099 0.0045478 -0.0243483 0.0069878
8 1 3.6201899 3.4689601 3.56918 0.0062741 0.0104135 0.0035961
9 1 0.058051 -0.114371 7.2553301 -0.06182 0.0321858 -0.0124064
10 1 3.7969201 -0.106096 7.2919898 -0.0397018 -0.0423894 0.0696203
11 1 -0.0864577 3.6433001 7.38695 -0.0106279 0.0435965 -0.0498548
12 1 3.6243 3.4089799 7.4263602 -0.0384493 0.0873202 -0.0839279
13 1 -0.0721246 7.2807799 -0.107919 -0.0275119 0.0232232 0.0446339
14 1 3.5244801 7.4266501 11.0341997 0.0315198 -0.0921972 0.0360083
15 1 -0.12633 7.1419301 3.5750401 0.0204432 0.0284207 0.0177777
16 1 3.7481699 7.3463602 3.6389201 -0.0467633 -0.0553868 -0.032543
17 1 0.153106 7.4602299 7.4688702 -0.112995 -0.0797436 -0.0563015
18 1 3.66673 7.2319102 7.2998099 -0.0074456 -0.011098 0.029046
19 1 7.1604099 -0.170897 -0.14169 0.0155451 0.0555007 -0.0424825
20 1 7.3393798 3.7179101 10.9891996 0.0064121 -0.031641 -0.0282747
21 1 7.38237 11.0880003 3.77611 -0.0252528 -0.047107 -0.0743898
22 1 7.3187199 3.7230401 3.5144701 -0.0062059 -0.0198018 0.0202207
23 1 7.3418799 10.9931002 7.3490601 0.0460795 0.0360064 0.0152938
24 1 7.26405 3.71276 7.2322898 0.0411194 0.0040857 -1.69054e-05
25 1 7.2862001 7.5175801 10.9835998 -0.040542 -0.133244 -0.0475096
26 1 7.4023299 7.3305998 3.4533201 -0.0680645 -0.0101533 0.0608015
27 1 7.2843599 7.44202 7.03193 0.066645 -0.0749926 0.0920734
28 2 1.54824 1.75426 1.5356701 0.0308782 -0.017114 0.0403498
29 2 1.88967 1.72786 5.5233302 -0.0272716 0.0056129 -0.0064701
30 2 1.5246001 1.7532801 9.0730104 0.0459622 -0.0143887 0.0445881
31 2 1.7403001 5.2339001 1.92152 0.0073436 0.0282501 -0.0332797
32 2 1.84366 9.1050596 1.83803 -0.0014002 -0.0363583 -0.0198367
33 2 1.70415 5.4857703 5.4205499 0.0162346 -0.0142736 0.0129452
34 2 1.81573 9.1406202 5.5852099 0.0112332 -0.0110949 -0.0223879
35 2 1.8326401 5.5338102 9.3613396 -0.0043588 -0.0281536 -0.0321858
36 2 1.6843801 9.2730703 9.2284403 0.0221426 0.0083961 0.0122326
37 2 5.7897001 1.67054 1.56694 -0.0833541 0.0519308 0.0650532
38 2 9.0353498 1.7440601 1.88674 0.0307165 -0.0046163 -0.0284221
39 2 5.6523299 1.83095 5.3901701 -0.0419903 -0.0037456 0.0147635
40 2 8.9881096 1.8191 5.43921 0.049111 0.0125527 0.0270055
41 2 5.6431499 1.91581 8.9984904 0.0011715 -0.051621 0.0503834
42 2 9.1672297 1.9399 9.0513601 -0.0156315 -0.0326202 0.0163558
43 2 5.5090099 5.3414302 1.66042 -0.0316781 0.0339784 0.0015472
44 2 9.02104 5.6338701 1.5591901 0.0358094 -0.0314987 0.0150381
45 2 5.4056802 9.3251305 1.82747 6.0883002e-04 -0.0134675 0.0012025
46 2 8.8319502 9.1582699 1.7368 0.0952451 0.0656565 -0.0040308
47 2 5.2658601 5.40311 5.4877301 0.0294932 -0.0164619 -0.0141993
48 2 9.1327896 5.3679299 5.4693599 0.017303 0.0218007 -0.0069912
49 2 5.3964501 9.0503798 5.5169401 -7.7424402e-04 0.0558011 -0.036316
50 2 9.2729797 9.2005196 5.3935199 0.0110896 -0.0044034 0.0036034
51 2 5.45716 5.3281798 9.0863104 -0.00635 0.0366675 0.017747
52 2 9.1360502 5.5765901 9.3000002 0.0039582 -0.0019438 -0.0375233
53 2 5.29775 8.96875 9.2367201 0.0256459 0.053696 -0.0374506
54 2 9.0953102 9.1722803 9.20823 0.0194844 -6.8556806e-04 -0.0279458
