ITEM: TIMESTEP
192000
ITEM: NUMBER OF ATOMS
54
ITEM: BOX BOUNDS pp pp pp
-0.0550131 10.9629936
-0.0550131 10.9629936
-0.0550131 10.9629936
ITEM: ATOMS id type x y z fx fy fz
1 1 10.8399 0.125646 10.8458996 0.032892 -0.0562205 0.0069859
2 1 3.6742201 0.0577777 10.8881998 -0.0472345 -0.0570382 0.0067456
3 1 0.189175 3.6280799 0.127108 -0.14001 -0.0057909 -0.0266592
4 1 3.64976 3.5975001 0.0033165 0.0864917 0.0824327 -0.0860519
5 1 0.101487 0.063502 3.5460301 -0.056415 -0.0057371 -0.0171605
6 1 3.65397 0.044611 3.64536 0.0327488 -0.0625013 -0.0282262
7 1 -0.0203086 3.73415 3.71613 0.0222496 -0.0692478 -0.0375206
8 1 3.8051701 3.5780301 3.58896 -0.0805718 0.0559391 0.0318974
9 1 10.8648996 10.8907004 7.1360898 -0.0260429 0.028027 0.0460347
10 1 3.35917 10.9125004 7.26683 0.0408569 0.05293 0.0407587
11 1 0.109103 3.5325899 7.3910098 -0.0432304 0.023286 -0.001526
12 1 3.7716 3.6993501 7.2217498 -0.0412976 -0.0478459 0.0335386
13 1 10.9506998 7.2707901 10.7483998 0.0145776 0.0586102 0.160088
14 1 3.5586901 7.2788901 10.8423996 -0.0094784 0.0251928 0.0705873
15 1 10.8908998 7.32968 3.6064501 0.132648 0.0452972 4.8125401e-04
16 1 3.7274699 7.4400802 3.7639101 -0.0689025 -0.0476241 -0.100818
17 1 10.9477998 7.3239598 7.2598901 0.0505413 -0.0949612 -0.0406101
18 1 3.4490199 7.2513099 7.2622099 0.0657756 -0.0157082 0.0759612
19 1 7.1756601 10.8753004 0.0335699 0.0558598 0.0134794 -0.0250097
20 1 7.26688 3.65674 10.8951998 0.0420709 -0.0160888 0.0163013
21 1 7.3974099 10.8936996 3.6761701 -0.0324109 -0.0163889 0.0092561
22 1 7.3269601 3.70098 3.63148 0.0182768 -0.0642981 -0.0330958
23 1 7.0707202 10.9134998 7.36548 0.0075747 -0.0213886 -0.0162221
24 1 7.3612299 3.50629 7.2027898 -0.0157014 0.008359 0.0577112
25 1 7.3357802 7.2439299 -0.0042698 -0.017583 0.0173416 -0.0142446
26 1 7.3797898 7.1950002 3.66082 -0.0884648 0.0840754 0.0064034
27 1 7.4938102 7.1450901 7.22473 -0.155677 -0.0308341 0.0038381
28 2 2.1750901 1.87061 1.73077 -0.106426 -0.0475471 0.0532539
29 2 1.77547 1.8267501 5.3870101 0.0153913 0.010193 0.0159755
30 2 1.81739 1.83261 9.1081104 0.0164022 -0.0170127 0.0166278
31 2 1.7453801 5.4912601 1.80213 0.0345187 0.035989 0.0253477
32 2 1.73251 9.4397202 1.5945601 0.0156603 -0.0476325 0.0083381
33 2 1.84136 5.4299598 5.3589101 0.0037079 0.0096809 0.0140512
34 2 1.7230801 8.9969302 5.5481301 -0.0102481 0.0376936 -0.055076
35 2 1.78204 5.3494401 9.25494 0.0198255 0.0118701 -0.0441106
36 2 1.61104 9.12467 9.2212896 0.0368893 0.0388345 -0.0397351
37 2 5.5696001 1.78756 1.78354 -0.010721 -1.6852401e-04 0.006257
38 2 8.8478604 1.73881 1.77666 0.0599546 0.0207458 -0.0035337
39 2 5.4272399 1.72771 5.4064899 0.0234763 0.004531 0.0222187
40 2 9.0649405 1.64717 5.5339399 0.0115473 0.0208924 -0.027979
41 2 5.4114599 1.89505 9.1345596 0.0084899 -0.0170476 -0.0116222
42 2 8.9635898 1.62487 9.0924797 5.9896102e-04 0.0292489 -0.0112722
43 2 5.1726399 5.5543399 1.8070901 0.0598929 0.0077885 -0.0113137
44 2 9.1881905 5.6727801 1.97992 -9.5137301e-05 -0.092845 -0.0973262
45 2 5.36866 8.99154 1.69092 0.0075963 0.0219877 0.02026
46 2 9.3277397 9.20681 1.67851 -0.0260967 -0.0101413 0.0083572
47 2 5.4103298 5.4759202 5.3938699 0.0299506 0.0094903 0.0176022
48 2 9.24475 5.12919 5.5904598 -0.0080838 0.0798796 5.0565e-04
49 2 5.1278 9.1624899 5.6932802 0.091367 0.0087837 -0.0213402
50 2 9.2060003 8.9949904 5.4005499 -0.0309568 0.039406 1.04365e-04
51 2 5.4152198 5.5265498 9.2047596 0.0157802 -0.0101029 -0.0287825
52 2 9.2994604 5.507 9.2326403 -0.0577511 -0.0784432 -0.0517674
53 2 5.4047599 9.1182003 9.2929001 0.0030844 -0.015513 -0.0460833
54 2 9.0399303 9.0118599 8.7802801 0.0167018 0.0661422 0.101599
