ITEM: TIMESTEP
138000
ITEM: NUMBER OF ATOMS
54
ITEM: BOX BOUNDS pp pp pp
-0.0848287 10.9928094
-0.0848287 10.9928094
-0.0848287 10.9928094
ITEM: ATOMS id type x y z fx fy fz
1 1 -0.0900018 11.0025997 10.9174996 -0.0296826 -1.1842799e-04 0.0328909
2 1 3.65293 -0.0562784 0.0913668 -0.0374215 -0.0112832 -0.100205
3 1 10.9758998 3.6232801 10.9849998 -0.0215419 -0.0274271 -0.034461
4 1 3.6189699 3.62482 -0.0438221 -0.0169708 0.0018469 -0.0047187
5 1 10.9663 10.9336996 3.51506 0.0456014 0.0138602 -0.0475997
6 1 3.7281699 10.9216996 3.53948 -0.0558473 -0.0641006 0.0656831
7 1 10.8312998 3.51862 3.5053001 -5.4751597e-04 0.0553116 0.0520645
8 1 3.42327 3.3782799 3.76316 0.036729 0.0299286 -0.0615141
9 1 10.7933998 10.9132004 7.2684498 0.0448771 -0.030218 -0.0029718
10 1 3.4916799 0.0523541 7.27032 0.001642 5.1709299e-04 0.0072567
11 1 10.8892002 3.45466 7.3368302 0.0855265 0.0127244 -0.0297485
12 1 3.7780199 3.8041899 7.3160401 -0.0265527 -0.0762033 0.0286673
13 1 0.134316 7.3766699 11.0186005 -0.088989 -0.0084693 -0.0336476
14 1 3.8173299 7.3687201 10.7594004 -0.0549721 -0.0203389 0.100737
15 1 0.0822955 7.2753902 3.6455801 -0.0027913 -0.0300428 -0.0048861
16 1 3.8166001 7.06148 3.69589 -0.0426526 0.0402276 -0.0308126
17 1 10.9578 7.0932999 7.40101 0.0522252 0.0308212 -0.0302427
18 1 3.6036001 7.3411102 7.26406 0.0334621 0.0438419 -0.0221662
19 1 7.2244802 -0.0150319 0.0864239 0.0130975 -0.0189152 -0.0055102
20 1 7.1848798 3.5255001 0.0527663 0.0147877 0.0786924 -0.0481298
21 1 7.3605199 10.9483996 3.67009 -0.0070244 0.0148937 -0.0226578
22 1 7.0967898 3.6564901 3.69834 0.041866 -0.0906958 -0.0565929
23 1 7.23069 0.104367 7.47579 -0.0504682 -0.0135427 -0.0407267
24 1 7.4019599 3.8162999 7.4976702 -0.0507022 -0.0575893 -0.0541736
25 1 7.3383498 7.2567601 10.8374005 0.03173 0.0054641 0.0327048
26 1 7.4513302 7.2569599 3.4577799 -0.0472131 0.069245 0.0592656
27 1 7.4974098 7.4442201 7.0709801 -0.0747916 0.024503 0.0350295
28 2 1.67378 1.82159 1.80966 0.0071976 -0.0251518 -0.0244278
29 2 1.448 1.6530301 5.3295698 0.0263058 4.43116e-04 0.034866
30 2 1.78982 1.5682 9.2701597 -0.0034301 0.0518704 -0.0165807
31 2 1.7211 5.38341 1.40174 0.0381507 0.0229541 0.0993916
32 2 1.93337 8.9865504 1.6570801 0.0126042 0.0244056 0.0403422
33 2 1.86841 5.2253599 5.43469 -0.0541265 0.0485021 0.0207051
34 2 1.91553 9.0898705 5.39502 -0.0177987 0.0135505 -9.6079798e-04
35 2 1.9253 5.5153899 9.1347504 -0.0209177 -0.0188982 0.0019245
36 2 1.8109601 9.2177096 9.1524801 8.1380606e-04 -0.0022904 -0.0128075
37 2 5.3117499 1.80913 1.813 0.0271408 0.0065587 0.0143821
38 2 9.0025702 2.0120101 1.71288 0.0251357 -0.0758478 0.0300995
39 2 5.5086999 1.60636 5.2487402 -0.0244323 0.0400987 0.0621543
40 2 8.88064 1.82371 5.5293398 0.0307688 0.0025784 -0.0105185
41 2 5.3239498 1.84781 9.2227602 0.0151362 -0.0122913 -0.007106
42 2 9.01863 1.73811 9.0840902 0.0393202 0.0245138 0.0661367
43 2 5.5466199 5.4724999 1.86386 -0.0184263 -0.0128172 -0.0533683
44 2 9.0531502 5.6721902 1.7003501 0.0724638 -0.0805529 -0.0396874
45 2 5.4828601 8.97719 1.80872 0.0056245 0.0155843 -0.0095778
46 2 9.0509396 9.10744 1.67473 0.0326603 0.0126652 -0.0046794
47 2 5.6845699 5.3804002 5.5106902 -0.0575078 0.0625428 0.0332207
48 2 8.9509002 5.3306399 5.2664099 0.0734893 0.0221497 0.0376636
49 2 5.5333801 9.4971104 5.6908999 -0.0167917 -0.0699132 -0.0284582
50 2 9.2813902 9.2514401 5.2025199 -0.025937 -0.0618702 0.0524711
51 2 5.60775 5.44626 9.2280502 -0.0335438 0.0010472 -0.0157798
52 2 9.1863403 5.3347902 9.2650204 0.0156289 0.0395077 0.0160205
53 2 5.5492602 9.2985697 9.2218104 -0.0196749 4.3202701e-04 -0.0234806
54 2 8.8147297 9.3056402 9.3289003 0.0767706 -0.0027044 -0.0454799
