ITEM: TIMESTEP
194000
ITEM: NUMBER OF ATOMS
54
ITEM: BOX BOUNDS pp pp pp
-0.0790205 10.9870006
-0.0790205 10.9870006
-0.0790205 10.9870006
ITEM: ATOMS id type x y z fx fy fz
1 1 0.0422724 10.9616004 10.8837004 0.0188257 0.0275434 0.0397594
2 1 3.8169201 10.7812004 0.0145595 -0.0241448 0.0173747 0.0028779
3 1 10.7233 3.5644701 0.205506 0.107193 0.021511 -0.0774893
4 1 3.52035 3.47133 10.7493 0.0317464 0.0036206 0.043457
5 1 -0.0743118 0.0241768 3.5034201 -8.1362696e-04 0.0455103 0.0033903
6 1 3.5590701 10.9379998 3.7472401 0.0198661 -0.0378194 -0.01143
7 1 10.8095999 3.93638 3.8563002 0.0114814 -0.0938916 -0.0252292
8 1 3.6534801 3.5643699 3.3408001 -0.0766814 -0.0214563 0.0196399
9 1 10.936 0.124535 7.15312 0.0155742 -0.135689 0.0166369
10 1 3.6574099 10.8740998 7.5234299 0.0244221 0.0539116 -0.0323297
11 1 0.0784312 3.4999101 7.3347402 -0.0305635 0.087696 0.0643522
12 1 3.7312801 3.49577 7.08953 -0.0065044 -0.0376446 0.0605065
13 1 10.8992996 7.3727102 -0.0672031 0.0418962 -0.0675557 -0.0553107
14 1 3.49229 7.1012998 0.0751279 0.0177227 -0.0102966 -0.0453017
15 1 10.9471998 7.5464301 3.4311099 0.0085234 -0.0613423 0.0308759
16 1 3.4755299 7.1443901 3.6175101 0.0048765 0.0592717 0.0734361
17 1 -0.0258668 7.1866298 7.0644398 -0.0115739 0.0357253 0.0395165
18 1 3.5678101 7.22332 7.3313198 -0.0051635 -0.0041764 0.0398288
19 1 7.4635802 10.9443998 10.7308998 -0.0344794 0.0288911 0.0301771
20 1 7.2018199 3.87272 10.9095002 -0.0067149 -0.113557 0.0331515
21 1 7.3017001 0.0141293 3.5306301 -0.0235386 -0.0113749 -0.0739209
22 1 7.1374202 3.7602999 3.63237 0.0267616 -0.0409143 -0.0067078
23 1 7.2969999 0.0379227 7.0193701 -0.0124032 -0.0541721 0.103062
24 1 7.4155698 3.6217301 7.20539 -0.0435363 0.0159302 0.0424835
25 1 7.3477302 7.3221002 0.0253935 -0.0384091 0.0524996 0.008381
26 1 7.2680102 7.46063 3.6641901 -0.0080973 -0.0449762 0.0253361
27 1 7.4061899 7.4433999 7.4762202 0.0069266 -0.0035835 -0.0256936
28 2 1.99566 1.42671 1.66671 -0.0292 0.0546988 0.0017942
29 2 1.81571 1.84083 5.39221 -0.0084661 -0.0115616 -0.0176075
30 2 1.78196 1.6766401 9.2178898 -0.0093496 -0.0131625 -0.0400761
31 2 1.47507 5.4436498 1.9593102 0.0385337 -0.0023871 -0.0487382
32 2 1.88687 9.0841999 1.77986 -0.0137589 0.0235986 -0.0091689
33 2 1.83341 5.27384 5.5349598 0.012272 0.0294768 -0.016519
34 2 1.89565 9.3238602 5.6904001 -0.0393767 -0.0412049 -0.0329778
35 2 1.7496001 5.2776599 9.1677399 -0.0167623 0.0377114 -0.0091644
36 2 1.9174 9.0743198 9.2124004 -0.0362393 -0.0148246 0.0078323
37 2 5.44486 1.76971 1.50395 0.0301009 0.007161 0.0255161
38 2 9.0620298 1.8446 1.8766202 -0.0268713 -0.016507 0.005898
39 2 5.3766098 1.64361 5.2471199 0.0156551 0.04188 0.0286919
40 2 8.9882898 1.77942 5.38942 0.0569206 0.0388873 -0.0401968
41 2 5.6950598 1.85129 9.0895996 -0.02901 -0.0130809 -0.0077254
42 2 9.1459503 1.84415 9.1467896 0.0102531 0.0061361 -0.0090132
43 2 5.48594 5.6787601 1.95577 0.0048347 -0.0291553 -0.0437575
44 2 9.0052204 5.3691201 1.90534 -0.002569 0.0608509 -0.0134035
45 2 5.35501 9.10602 2.0246401 0.0081024 -0.002912 -0.0254436
46 2 9.0589504 9.2527504 1.6764 0.0141985 0.009315 0.0102544
47 2 5.1887202 5.5058699 5.5846601 0.0936647 0.0053546 -0.0631796
48 2 8.89217 5.5257602 5.5054899 0.0191497 0.0411348 -0.0121452
49 2 5.5430599 8.9795504 5.7284003 -0.0409687 0.026608 -0.0448134
50 2 9.2447596 9.09657 5.1808 -0.0274312 0.0627991 0.0824655
51 2 5.6416898 5.61969 9.1204205 -0.0548878 -0.0209118 -0.0205983
52 2 9.1921797 5.4016099 8.9146404 0.0198797 0.0089387 0.0437882
53 2 5.2572599 8.8284703 9.3278799 0.0431851 0.0247518 -0.0178746
54 2 9.4703598 9.2418699 9.1349897 -0.0450515 -0.0246306 -0.0572934
