ITEM: TIMESTEP
154000
ITEM: NUMBER OF ATOMS
54
ITEM: BOX BOUNDS pp pp pp
-0.0885724 10.9965526
-0.0885724 10.9965526
-0.0885724 10.9965526
ITEM: ATOMS id type x y z fx fy fz
1 1 -0.059529 10.9752998 -2.0232899e-04 -0.0135389 -0.0332365 -0.0210672
2 1 3.69505 10.9862004 0.112622 -0.0175962 0.0104801 -0.0468637
3 1 10.8256998 3.5539501 10.8796998 0.0217767 -0.0170649 0.0416075
4 1 3.4450801 3.7175801 10.7685004 0.0332873 -0.0540607 0.0856191
5 1 -0.0488492 10.8943006 3.7771101 -0.0306773 0.0079523 -0.0789483
6 1 3.5672 0.0416479 3.6908801 0.0415314 0.0062427 -0.0011055
7 1 10.9777002 3.5662501 3.73804 -0.0607137 0.0172504 -0.100273
8 1 3.5235601 3.85128 3.41818 0.0273186 -0.0314131 0.0175061
9 1 10.8785 10.7995997 7.2739301 0.0846917 0.0602731 0.0799001
10 1 3.77317 0.0964625 7.4180999 -0.0673815 -0.067806 -0.0285218
11 1 0.0542168 3.4080901 7.2610402 -0.0684577 0.0343852 0.0460724
12 1 3.5347801 3.5673201 7.1782198 0.0691192 0.0756042 -0.0343728
13 1 10.9902 7.1278501 10.7600003 0.0218733 0.0604326 0.0393411
14 1 3.7474501 7.2999101 -0.0864009 -0.0785434 0.04474 0.0304855
15 1 10.9285002 7.1893902 3.59159 -0.0108349 0.0853737 -0.0571532
16 1 3.3779099 7.5127802 3.63218 0.118216 -0.0591044 -0.0595117
17 1 -0.024523 7.3524299 7.1132898 0.0174681 -0.0900422 0.0777795
18 1 3.68782 7.35887 7.28268 0.0150244 0.0341398 -0.0463676
19 1 7.3385801 -0.0267379 -0.0564618 -0.0220081 0.0144972 -0.0345888
20 1 7.2593699 3.65936 -0.0431996 -0.0246616 0.0306659 0.0317166
21 1 7.3605099 10.8364001 3.5752499 -0.0175212 0.0794321 0.0036857
22 1 7.16502 3.4313901 3.72295 0.0590855 0.0707606 -0.0184259
23 1 7.2859998 10.8076 7.2055602 0.0029115 0.0029652 0.0545616
24 1 7.3931899 3.35411 7.51229 -0.0208291 0.0386047 -0.0814387
25 1 7.2456699 7.3887401 -0.0412794 0.0685053 -0.0372681 0.0189837
26 1 7.1613002 7.4098101 3.6963699 0.0276896 -0.0911029 0.0084115
27 1 7.43575 7.1644602 7.29947 -0.0550162 0.0542666 0.0065185
28 2 1.63825 1.60418 1.88164 0.0087115 0.0386532 -0.0165222
29 2 1.77954 1.92653 5.2213602 0.0324617 -0.0442716 0.0506798
30 2 1.71752 1.5503301 9.4515105 0.019169 0.0328945 -0.0634052
31 2 1.74624 5.5275798 1.6500501 -0.0198609 0.005482 -0.0070219
32 2 1.70914 9.14674 1.7330101 -0.0092272 -0.0020008 -0.0082372
33 2 1.74158 5.6619201 5.3558698 0.0192327 -0.0608429 0.0245519
34 2 1.7865401 9.1339302 5.3787098 -0.0240853 0.0447443 0.0669594
35 2 2.0424099 5.6597901 9.1027098 -0.0809733 -0.0072723 -0.041139
36 2 2.0599301 9.3111601 8.9631396 -0.0459335 -0.0286874 0.0435773
37 2 5.4212599 1.95131 1.64403 -0.0178431 -0.0208372 0.019847
38 2 9.0841999 1.69871 1.93865 0.0197433 0.0128038 -0.0178207
39 2 5.5682302 1.64063 5.39848 -0.0272498 -0.0042519 0.0353503
40 2 9.1420097 1.52542 5.54103 -0.0061618 0.035337 -0.0196802
41 2 5.2955198 1.92919 9.1701899 0.0351455 -0.0149577 0.0332152
42 2 9.1385403 1.44488 9.0190897 0.0177275 0.0191882 0.0369399
43 2 5.5591502 5.6905999 1.85337 -0.0267135 -0.0459391 -0.0059939
44 2 9.2331305 5.6601 1.7934701 -0.0512915 -0.0527278 -0.0333012
45 2 5.4022002 9.1258402 1.86524 2.2077599e-04 0.0147952 -0.0078037
46 2 9.1773701 9.3077402 1.58146 -0.0017393 -0.0611298 0.0465214
47 2 5.7268 5.3722501 5.7555299 -0.0510599 -0.0282752 -0.0527253
48 2 9.1689501 5.5049401 5.37496 -0.0153007 -0.0328275 0.0158719
49 2 5.3468499 9.2934799 5.4506698 -0.0040462 -0.0287943 -0.0049435
50 2 9.1356497 9.05898 5.54214 -0.0122625 -0.0073199 -0.0493739
51 2 5.30473 5.5980301 9.0380096 0.060545 -0.048199 0.0222405
52 2 8.97711 5.4665098 9.0399199 0.0574956 -0.0414838 0.0499613
53 2 5.5791602 9.1329098 9.2869902 -0.0242531 0.0229732 -0.0375722
54 2 9.0567198 8.8951598 9.1760597 0.0268304 0.0559792 -0.0137265
