ITEM: TIMESTEP
106000
ITEM: NUMBER OF ATOMS
54
ITEM: BOX BOUNDS pp pp pp
-0.0989422 11.0069227
-0.0989422 11.0069227
-0.0989422 11.0069227
ITEM: ATOMS id type x y z fx fy fz
1 1 -0.0608611 0.0152593 0.016638 0.0910025 -0.0220361 -0.0632483
2 1 3.81666 10.9941998 10.8633004 -0.0255579 -0.0138193 0.0117925
3 1 10.9958 3.67084 10.9357996 -0.0021007 0.0250336 0.0356115
4 1 3.5121801 3.5506101 -0.0393051 0.0360579 0.0176695 -0.0229582
5 1 10.9280006 11.0049 3.50404 0.0115562 -0.0102314 0.105686
6 1 3.5847399 10.8153 3.34724 -0.0123443 0.0875371 0.0365482
7 1 0.0634389 3.57283 3.5559199 -0.0587307 0.0651839 0.0269108
8 1 3.7771499 3.5634699 3.5762501 -0.0031898 0.0034592 -0.0057819
9 1 10.9049998 -0.0931349 7.4696298 0.0391977 -0.0355456 -0.061465
10 1 3.61794 0.058054 7.2512102 -0.0201886 -0.0024503 -0.0164886
11 1 10.9320002 3.5157001 7.2837601 0.0148698 0.0037356 -0.0411962
12 1 3.61707 3.66624 7.3618798 -0.0122704 0.0382399 0.012066
13 1 0.0461723 7.3982501 0.115949 -0.0935191 -0.041258 -0.149707
14 1 3.57601 7.1961098 10.9882002 0.047984 0.0332347 -0.0315359
15 1 10.9011002 7.2706599 3.56462 -0.0207247 -0.026077 0.0562846
16 1 3.43699 7.2890501 3.5138901 0.0176944 -0.0219298 0.0549249
17 1 -0.0257854 7.0471101 7.2933202 -0.0441943 0.0713161 -0.0030167
18 1 3.5276599 7.5781899 7.3233299 0.0257882 -0.0731977 -0.0193783
19 1 7.5866199 10.9432002 10.9229002 -0.0789951 -0.0139381 0.0390026
20 1 7.3221102 3.63274 -0.0829583 0.0334151 -0.0799479 -0.0343878
21 1 7.22295 10.8525 3.6452999 0.0047131 0.0290533 -0.0267431
22 1 7.4310699 3.4926601 3.7260399 -0.0550595 0.0133727 -0.0654647
23 1 7.3887301 0.117166 7.3439498 -0.0738521 -0.0337885 -0.0057439
24 1 7.2901302 3.7802201 7.2287998 0.0160096 -0.047354 0.0676135
25 1 7.30198 7.1131201 -0.0393301 0.0397418 0.0840945 -0.0066048
26 1 7.0324202 7.20649 3.62692 0.0565968 -0.00982 0.0401056
27 1 7.3052902 7.3195901 7.4004402 0.0221541 0.0624076 -0.0121211
28 2 1.68225 1.97074 1.7334501 0.0324535 -0.0654642 -0.0122634
29 2 1.85273 1.8319401 5.2083001 7.4889503e-05 -0.0390703 0.0404865
30 2 1.7481101 1.85955 8.9872304 9.910431e-04 -0.0182975 0.0377771
31 2 1.8683 5.5031901 1.72243 -0.0361946 -0.0418566 0.0089971
32 2 1.60083 9.1603899 1.79168 0.045511 0.0244775 0.0121349
33 2 1.96663 5.2678199 5.3824201 -0.0337496 0.0329071 0.0097114
34 2 1.35049 9.0588503 5.4320598 0.0448952 0.0274758 0.0062181
35 2 1.64924 5.4982801 9.2163696 0.033348 -0.0174175 6.6216803e-04
36 2 1.79451 9.2769003 8.9365798 -0.0302222 0.0092277 0.0698961
37 2 5.7554498 1.74093 1.6328 -0.0335468 -0.02289 0.0258527
38 2 9.3257399 1.78731 1.8294701 -0.0472972 0.0149212 -0.021873
39 2 5.29531 1.84916 5.5273099 0.0526263 -0.0132685 -0.0141826
40 2 9.0134001 1.76423 5.39853 0.0694051 -0.0357556 0.0302003
41 2 5.4905801 2.0232799 9.3457699 5.9723802e-04 -0.0462767 -0.0574152
42 2 9.2951098 1.83591 9.2612801 -0.0372477 -0.0037387 -0.0115975
43 2 5.6159401 5.2273402 1.77489 -0.047071 0.0225396 0.003866
44 2 8.9467802 5.1824598 1.8362401 0.0705726 0.0644238 0.002584
45 2 5.5058899 8.8175898 1.62656 -0.026767 0.0653966 0.0049693
46 2 9.1556301 9.0166502 1.82108 -0.0299514 0.0190829 -0.0108806
47 2 5.4149599 5.7399302 5.9208398 -0.0475355 -0.050607 -0.100025
48 2 9.0820198 5.6484199 5.3378601 -0.0020836 -0.0364062 0.0237438
49 2 5.2004499 9.2679901 5.4258199 0.0366905 -0.0168896 -0.0018321
50 2 8.9905596 9.1293802 5.4811902 0.0191657 -0.0038213 0.0028099
51 2 5.53053 5.4186401 9.2536097 -0.028791 0.0043741 -0.0113136
52 2 9.1779699 5.5430498 9.2411404 0.0048805 -0.0212852 -0.010952
53 2 5.5825701 9.1705303 9.1028004 -0.0047701 0.0054878 0.0094699
54 2 9.1438904 8.9066096 9.0371304 0.0379621 0.039787 0.042252
