ITEM: TIMESTEP
156000
ITEM: NUMBER OF ATOMS
54
ITEM: BOX BOUNDS pp pp pp
-0.0729055 10.9808856
-0.0729055 10.9808856
-0.0729055 10.9808856
ITEM: ATOMS id type x y z fx fy fz
1 1 10.9768 0.0076677 0.0157198 0.0373774 -0.0833526 -0.0027987
2 1 3.6703701 -0.0299349 -0.0102736 -0.0089515 -0.0515208 7.4825502e-04
3 1 0.0483719 3.5237501 -0.027654 -0.0626326 0.0835444 -0.0346361
4 1 3.6636901 3.5588701 10.8928004 -0.0091814 0.0451043 -0.0190874
5 1 10.7658005 10.962 3.70837 0.0834575 -0.049215 -0.0111474
6 1 3.59428 -0.0597361 3.5899701 -0.0308647 -0.0513193 0.0067023
7 1 10.9652004 3.4259801 3.69206 0.0222535 0.0776765 -0.0359601
8 1 3.78037 3.5027201 3.3471701 -0.076303 0.0472445 0.0950545
9 1 -0.017803 0.118086 7.4429302 -0.0627099 -0.0128907 -0.0645754
10 1 3.5476699 0.008731 7.34476 0.0258763 -0.0273595 -0.0325094
11 1 10.9083004 3.89012 7.30756 -0.0074021 -0.14433 0.0564819
12 1 3.5836599 3.727 7.2871699 -0.0097213 -0.0816361 -0.0341463
13 1 10.9629002 7.29034 0.0381393 0.0173626 0.0106594 -0.0196652
14 1 3.5522399 7.3133702 0.111488 0.0460603 -0.0084468 -0.08239
15 1 10.8923998 7.2964001 3.6558001 0.0506083 -0.0365415 0.0090605
16 1 3.5947101 7.2010298 3.64745 -0.0079975 -2.1168499e-05 0.0378818
17 1 10.9180002 7.3673501 7.4014802 0.0401396 0.0665837 -0.0223482
18 1 3.68154 7.3220201 7.3628702 -0.0206253 0.0327759 -0.0383991
19 1 7.36692 10.9028998 10.8743 -0.0407449 -0.0048025 0.0380406
20 1 7.2561998 3.57215 10.9571 0.0267323 -0.0118024 0.0262221
21 1 7.29456 0.130477 3.72733 -0.0281459 -0.0679056 -0.0752286
22 1 7.3157301 3.80983 3.54895 0.0532269 -0.092715 0.060376
23 1 7.22119 0.0174396 7.2244802 0.0104787 -0.0580531 0.0528427
24 1 7.21175 3.5244401 7.32934 0.0075091 0.0712018 -0.0300474
25 1 7.2549501 7.1138001 10.7216997 0.0034468 0.0652228 0.0740695
26 1 7.2648902 7.31953 3.65975 -0.0097609 0.0248899 -0.072359
27 1 7.2693801 7.4391599 7.2224202 -0.0028305 -0.0503193 0.0224891
28 2 1.8318401 1.78907 1.57468 0.009843 -0.0164608 0.0662275
29 2 1.6790201 1.70699 5.47574 0.0252133 0.0128749 -0.0028136
30 2 1.72855 1.7551201 9.1533003 0.0312027 0.0340187 0.0150365
31 2 1.88529 5.31105 1.6459201 -0.0255501 0.0106668 0.0368369
32 2 1.77151 9.0189199 1.8493 -0.016636 0.0381368 0.0102687
33 2 1.7354701 5.2209301 5.53441 0.0202619 0.0730726 -0.0720364
34 2 1.7013901 9.1555004 5.4575601 0.005826 3.32145e-04 0.0077581
35 2 1.86755 5.63864 9.0263701 -0.0252292 -0.0273805 0.0473482
36 2 1.88858 9.2159701 9.1199904 -0.0251459 -0.0124856 0.0233075
37 2 5.68049 1.76413 1.88245 -0.0192875 -0.0136295 -0.0635395
38 2 9.2326403 1.76207 1.67452 -0.0447837 0.0151799 0.0292983
39 2 5.2673702 1.7001 5.4136701 0.0185765 0.0361633 0.019429
40 2 9.03899 1.8193901 5.50844 0.0244489 0.0194041 0.0141816
41 2 5.27314 1.68936 9.1896601 0.0557262 0.0156509 -0.0266152
42 2 8.8768196 1.81989 9.2546196 0.0799995 -0.0093284 -0.0474859
43 2 5.6455002 5.41713 1.70208 -0.0517572 0.0346041 -0.0116291
44 2 9.1317997 5.4933 1.8906 0.0176097 -0.0029037 -0.0389143
45 2 5.7157898 9.0590296 1.59424 -0.0405234 0.0067088 0.027677
46 2 8.9712096 8.9905702 1.62598 0.0208935 0.0173056 0.0238319
47 2 5.4874602 5.3664298 5.3979402 -0.0144896 0.0172346 0.0174238
48 2 9.1384201 5.5378399 5.5678101 -0.0268583 -0.0023154 -0.0271637
49 2 5.5194998 9.1427803 5.3055301 -0.0332473 0.0185123 0.0232492
50 2 9.0748396 8.9614898 5.4000802 0.0167443 0.0664399 0.0183578
51 2 5.39782 5.31913 9.0606203 0.0149054 0.0317325 0.0141187
52 2 9.3424702 5.47575 9.3337803 -0.0304157 -0.0235777 -0.0234743
53 2 5.3474302 9.1241703 9.1770001 0.0174438 0.0111475 -6.0364599e-04
54 2 9.3749704 9.3707104 9.0992203 -0.0514285 -0.0437763 0.015254
