ITEM: TIMESTEP
152000
ITEM: NUMBER OF ATOMS
54
ITEM: BOX BOUNDS pp pp pp
-0.062053 10.9700336
-0.062053 10.9700336
-0.062053 10.9700336
ITEM: ATOMS id type x y z fx fy fz
1 1 10.9230004 0.0071677 -0.0516688 0.0354669 -0.0253449 -0.0413954
2 1 3.5079201 10.9449998 10.8280001 -0.0189106 -0.0456028 0.0802891
3 1 -0.0154244 3.6400199 0.0983835 0.0119931 -0.0452727 -0.0557985
4 1 3.64639 3.5320101 -0.0196265 0.0206961 0.0858659 0.0174973
5 1 -0.0470028 10.9567004 3.51385 7.8371301e-04 0.0151054 0.0162256
6 1 3.6380501 0.0602594 3.5804801 0.0134047 -0.0694067 -0.0611928
7 1 10.8809004 3.5850699 3.66884 0.068584 0.0187848 0.0348121
8 1 3.69237 3.5771101 3.62269 -0.087379 0.0069353 -0.0185751
9 1 10.9357004 0.0656869 7.2732201 0.0667669 -0.0681462 0.049196
10 1 3.6988299 0.0298479 7.17833 -0.0916955 0.0199526 0.0044092
11 1 0.0746695 3.64691 7.3978701 -0.101132 0.004798 -0.0362701
12 1 3.59916 3.79526 7.17136 0.0649048 -0.0947333 0.0517036
13 1 10.8816996 7.2199001 -0.0010167 -2.0132101e-04 0.0539358 -0.0225188
14 1 3.5897401 7.1342802 0.0698671 -0.0119198 0.029963 -0.0103773
15 1 -0.0045886 7.3295102 3.6045201 -0.0385623 -0.0081284 0.04731
16 1 3.6080301 7.1712599 3.793 0.0248677 0.0640872 -0.0688179
17 1 10.9393998 7.3797202 7.38274 -0.0236253 -0.0174863 -0.043856
18 1 3.53191 7.2491999 7.3347101 0.0391662 0.0603551 0.0251616
19 1 7.3085299 -0.0096596 10.9047004 -0.0385762 0.0332027 -0.0204645
20 1 7.3337498 3.8077801 0.0650545 0.0202978 -0.0881263 -0.0780488
21 1 7.3112798 -0.0560906 3.5366299 0.016571 -0.050443 0.0163044
22 1 7.3920298 3.3924301 3.6384499 -0.0155385 0.0529435 0.0111846
23 1 7.2419901 10.9181996 7.10041 0.0349126 0.0066898 0.056908
24 1 7.2887302 3.5458601 7.2884798 0.0042902 0.0057919 0.0017872
25 1 7.1098599 7.3896599 10.9188004 0.0436305 0.0059946 0.0068547
26 1 7.3162098 7.0142002 3.6135099 0.0136731 0.0619805 -0.0153789
27 1 7.2000198 7.2763 7.2961002 0.0146922 0.0151838 -0.0172019
28 2 1.91855 1.84138 1.84033 -0.0419008 -0.0109657 -0.014579
29 2 1.73051 1.83978 5.4249902 0.0120645 -0.0010522 6.8835698e-04
30 2 2.0048001 2.0724101 9.1512404 -0.081423 -0.0890023 -0.0377094
31 2 1.69357 5.57445 1.8699502 0.02282 -0.0490269 7.35285e-04
32 2 1.63913 9.0834503 1.6717401 0.0327737 0.0131179 0.0087869
33 2 1.79044 5.4565902 5.4690199 -0.0430074 -3.0145299e-05 -0.0100643
34 2 1.88302 9.4628897 5.3483601 -0.0318281 -0.0653336 0.0249874
35 2 1.72567 5.2351999 9.2217503 0.0338072 0.0863623 0.0198895
36 2 1.7951601 8.7975102 9.1686201 -0.0021331 0.0704301 0.0372521
37 2 5.48345 1.86201 1.64037 0.0118935 -0.0468222 0.0247135
38 2 9.2044497 1.7169301 1.6913001 -0.0288541 0.0198328 0.0217497
39 2 5.4018002 1.79783 5.3067098 0.029141 -0.0080806 0.0433954
40 2 9.2403698 1.57038 5.5043302 -0.0449739 0.0694918 -0.0488433
41 2 5.13657 1.72909 9.1771898 0.109345 0.0362128 -0.0370895
42 2 9.0476303 1.88229 9.0854998 0.0183667 -0.01177 0.0206935
43 2 5.4923601 5.11867 1.92188 -0.0091947 0.0930741 -0.0163554
44 2 9.2485705 5.3628898 1.73442 -0.0304574 0.0372705 0.0539791
45 2 5.61266 9.2453098 1.892 -0.0634012 -0.037651 -0.0284562
46 2 8.8758298 9.0331297 1.74649 0.0536048 0.0048836 0.0054994
47 2 5.5180502 5.2504702 5.27212 0.0161159 0.0250436 0.054884
48 2 9.1702299 5.5243702 5.6835799 0.0047632 -0.0226336 -0.0280138
49 2 5.3176198 9.15026 5.4449802 0.0249838 -0.0178803 -0.0151931
50 2 9.2274304 9.1634598 5.3295398 -0.0195869 -0.0117136 0.0167436
51 2 5.6282802 5.3899498 9.0990496 -0.051792 -0.0019647 0.0063403
52 2 9.1269903 5.5223298 9.2363796 -0.0061591 -0.0140122 -0.0248707
53 2 5.3204398 9.4096604 9.0366898 0.0417934 -0.0728663 0.0088413
54 2 9.2147198 9.2711401 9.1911402 -0.023922 -0.0237934 -0.0177522
