ITEM: TIMESTEP
136000
ITEM: NUMBER OF ATOMS
54
ITEM: BOX BOUNDS pp pp pp
-0.0835083 10.9914886
-0.0835083 10.9914886
-0.0835083 10.9914886
ITEM: ATOMS id type x y z fx fy fz
1 1 0.0079707 10.8707 -0.0660952 0.0320123 0.0034411 0.0323124
2 1 3.5295801 0.0230744 -0.0383713 0.0615496 -0.0700488 -0.0613638
3 1 0.0372166 3.5542 -0.146405 -0.0186823 0.0478376 -0.0253344
4 1 3.66626 3.7109301 10.9123002 -0.0305347 -0.0278508 -0.0161126
5 1 11.0066996 10.9515 3.5374899 0.0238954 -0.0264234 0.0080388
6 1 3.60072 11.0038996 3.5571001 0.0223794 0.003834 0.0304962
7 1 2.4895802e-04 3.7026201 3.5157399 -0.0373776 -0.0925374 0.0107078
8 1 3.5113101 3.73278 3.7490599 0.118284 -0.0677577 -0.115612
9 1 -0.0197267 6.55163e-04 7.48808 0.0584844 -0.0101121 -0.112043
10 1 3.73017 0.038838 7.2722402 -0.0580738 -0.0781555 0.0353101
11 1 -0.0013473 3.6457401 7.2636099 -0.056916 -0.0538166 0.0141726
12 1 3.55143 3.4806199 7.1987901 0.0378663 0.0944502 0.0874165
13 1 10.9328004 7.2349701 0.131653 0.0190617 0.0208008 -0.0909876
14 1 3.4821201 7.29246 10.9831 0.0233434 0.032349 0.0064652
15 1 10.8262997 7.1259499 3.6717701 -0.0208245 0.0936686 0.0230901
16 1 3.362 7.20575 3.7049501 0.0475051 0.0664419 -0.0038738
17 1 10.9476996 7.1656599 7.2621899 0.0114289 0.0646684 0.0435833
18 1 3.52159 7.3343401 7.3457499 -0.0252554 0.0120349 -0.0048691
19 1 7.5405598 10.9783002 10.9877996 -0.0656702 -0.0115953 0.0027805
20 1 7.2676001 3.54068 -0.119094 0.0670747 0.0705782 0.041155
21 1 7.3136101 10.9362002 3.6861999 -0.0123946 0.0129851 -0.0498751
22 1 7.4837399 3.58178 3.63782 -0.0444895 -0.0091335 -0.0254643
23 1 7.3122201 0.135831 7.2068601 0.0490356 -0.07792 0.0550268
24 1 7.2471199 3.6503501 7.2455602 0.0133974 0.0307075 0.034223
25 1 7.19767 7.3694601 -0.0369378 0.0471524 -0.0864733 -0.0506293
26 1 6.9994998 7.26332 3.66854 0.0333248 -0.015856 0.0074479
27 1 7.25421 7.32721 7.3634 0.0051585 0.0573148 -0.0438772
28 2 1.80342 1.86755 1.68018 -3.86221e-04 -0.0068717 0.0263069
29 2 1.84588 1.82181 5.2361498 -0.0381605 -0.0408482 0.0415525
30 2 1.95124 1.86499 9.2015305 -0.0348085 -0.0238485 -0.017339
31 2 1.7827 5.42974 1.81922 -0.0067405 0.0035711 -0.0340146
32 2 1.95092 9.0967903 1.90691 -0.0543703 0.0102408 -0.0374276
33 2 1.7307 5.35395 5.514 -0.0111812 0.0376345 0.0072372
34 2 1.53291 8.9696704 5.5046702 0.0229804 0.0390444 -0.0104443
35 2 1.8231401 5.3930001 9.0429497 -0.0119846 0.0089316 0.0166743
36 2 1.67862 8.9424696 8.9966202 -2.0989502e-05 0.0412168 0.0468565
37 2 5.1880899 1.8015701 1.63895 0.0615863 0.0170854 0.046263
38 2 9.4491101 1.79513 1.55333 -0.0500201 -0.0090254 0.050013
39 2 5.4417901 1.83717 5.4867602 0.0082181 5.6213899e-04 -0.046491
40 2 9.59725 1.7128201 5.37151 -0.0687771 0.0229912 0.0205698
41 2 5.6715498 1.78845 9.2778502 -0.0592714 -0.0349795 -0.0436577
42 2 9.3184204 1.7042201 9.2188196 -0.0284002 0.0321098 -0.0088396
43 2 5.1617498 5.3743401 1.7289601 0.0605408 0.0373228 0.0318603
44 2 9.1329203 5.4716401 1.6715 -0.0353899 -0.035912 0.0182187
45 2 5.5527001 9.0642595 1.59392 -0.0658683 0.0647272 0.0522229
46 2 9.0465097 8.9790402 1.935 0.0057369 0.0183522 -0.0094421
47 2 5.2209301 5.6399899 5.7268 0.0470556 -0.0521288 -0.0685578
48 2 9.0904999 5.4660702 5.6560302 -0.0111783 -0.0122584 -0.0496842
49 2 5.1704202 9.1503801 5.50982 0.0413345 -0.0091174 -0.0217726
50 2 9.2105103 9.2530699 5.5545998 -0.0070537 -0.015286 -3.6320801e-04
51 2 5.3364601 5.52635 8.9629602 0.0138101 -0.0225022 0.0451527
52 2 9.0469704 5.64853 9.0314703 0.0132553 -0.0518382 0.0556498
53 2 5.4477401 9.06217 9.0201702 -0.0105403 0.039993 0.032761
54 2 9.4855099 9.1800203 9.0791197 -0.0811011 -0.0425984 0.0245106
