ITEM: TIMESTEP
102000
ITEM: NUMBER OF ATOMS
54
ITEM: BOX BOUNDS pp pp pp
-0.0876704 10.9956504
-0.0876704 10.9956504
-0.0876704 10.9956504
ITEM: ATOMS id type x y z fx fy fz
1 1 -0.0021814 10.7735005 10.948 -0.0683492 0.0433325 0.0240519
2 1 3.67343 10.9757996 -0.0231089 -0.0191318 0.0190029 -0.0546792
3 1 10.9372998 3.50175 0.0837152 0.0494167 0.0269806 0.0104681
4 1 3.7651899 3.52297 0.229668 -0.0405274 0.0470186 -0.102001
5 1 0.0044474 10.9567004 3.5123601 0.0456305 -0.0337484 0.0292685
6 1 3.6091101 0.0397507 3.56034 0.0269727 -0.0729045 0.0297385
7 1 10.9469004 3.5987101 3.8258901 0.0232385 0.0439878 -0.0767781
8 1 3.60283 3.5621901 3.8116501 0.0050814 0.0771362 0.0537025
9 1 -0.0514573 0.166512 7.19835 -0.0049076 -0.071047 0.0211046
10 1 3.68188 10.9461002 7.2745099 -0.0255272 0.0178239 0.0227806
11 1 -0.1002 3.6912999 7.4342499 0.0147429 0.0337606 0.0282255
12 1 3.59247 3.49978 7.5820999 -0.0128379 -0.0030914 -0.0239354
13 1 10.8441 7.2641502 10.823 0.0897679 -0.025063 0.0571897
14 1 3.7197399 7.3112798 10.7623997 -0.0838672 -0.0406345 0.0541662
15 1 10.8402004 7.3474898 3.4288299 0.0275148 -0.0249745 0.0127133
16 1 3.56543 7.4625201 3.35869 -0.044362 -0.0192755 0.0500088
17 1 10.8943006 7.3909402 7.0662499 0.029786 0.0037762 0.0454983
18 1 3.56318 7.16536 7.0712199 0.0115366 0.0253791 0.0149865
19 1 7.4056602 -9.75809e-04 0.0106872 -0.0091407 0.0106809 -0.0535509
20 1 7.4458499 3.6336901 10.8479996 -0.0885169 -0.0127604 0.0469702
21 1 7.37045 -0.0470664 3.61781 -0.0439737 -0.0568096 -0.0056341
22 1 7.23281 3.5211001 3.3666899 0.0649041 0.0513085 0.0801578
23 1 7.3516302 -0.044609 7.2425199 0.0219851 -0.01723 0.0523155
24 1 7.35044 3.6445101 7.1552501 1.16477e-04 -0.0409623 0.0441224
25 1 7.2774201 7.3819199 -0.013041 0.0309631 -0.0562662 -0.0403807
26 1 7.0935702 7.29353 3.58984 0.0666689 0.0090621 0.0396654
27 1 7.2649598 7.4312802 7.4182301 -0.0057456 -0.0615922 -0.051613
28 2 1.85516 1.93595 1.90189 -0.0375478 -0.0358202 -0.0076299
29 2 1.72017 1.7219301 5.2862301 0.0139828 0.0028196 0.0497896
30 2 1.50112 1.67417 9.4675904 0.0764146 0.0374302 -0.0597864
31 2 1.7781101 5.35953 1.85803 -0.0122977 0.0102554 -0.0069077
32 2 1.74271 9.0537205 1.60285 -6.7315402e-04 0.0028606 -9.0828495e-04
33 2 1.63005 5.4180498 5.56948 0.0139441 -0.0064252 -0.0309708
34 2 1.7719701 9.3106699 5.5181999 -6.737e-04 -0.0213527 -0.0262117
35 2 1.78507 5.6089101 9.22153 -0.0151787 -0.0365568 -0.0215823
36 2 1.65121 9.1659002 8.9829904 0.0238357 -0.0161655 -0.0073808
37 2 5.4340902 1.77756 1.91511 0.0077492 -0.0550155 -0.0357822
38 2 9.4087601 1.60278 1.98402 -0.0630242 0.0559564 -0.0821707
39 2 5.62567 1.6253801 5.4934101 -0.0432786 0.0416234 -0.0181152
40 2 9.1711702 1.73154 5.2112498 -0.0208182 -0.0023527 0.0707695
41 2 5.5918002 1.80204 9.2501402 -0.0123269 -0.0192118 -0.0121485
42 2 9.1311197 1.83146 9.0268898 0.0034249 -0.0198106 0.0175367
43 2 5.2825699 5.3809099 2.00298 0.0266446 0.0273904 -0.0379321
44 2 9.0905304 5.4408899 1.81589 -0.0020208 -0.0018166 -0.0131543
45 2 5.4833498 9.1213503 1.45275 -0.020153 0.030032 0.0812427
46 2 8.99576 9.24228 1.80197 0.0322529 -0.0286432 -0.0056334
47 2 5.6500402 5.3621302 5.5352602 -0.0518363 0.0272009 -0.0324166
48 2 9.1346102 5.3851199 5.5173702 -0.0066798 0.0340571 -0.0283429
49 2 5.3797403 9.2062302 5.4327102 0.0150192 -0.0106055 -0.0131402
50 2 9.3057804 9.3251801 5.3494101 -0.0354197 -0.0122262 0.0102909
51 2 5.44945 5.3635502 9.1399098 0.0183001 0.0103335 6.7148304e-06
52 2 9.1066103 5.4567499 9.3478603 0.0063794 0.0082517 -0.0900799
53 2 5.30263 9.0355902 9.0338898 0.0360078 0.0516932 -0.0089312
54 2 9.19841 9.0440197 9.0701399 -0.0134652 0.053208 0.0010271
