ITEM: TIMESTEP
110000
ITEM: NUMBER OF ATOMS
54
ITEM: BOX BOUNDS pp pp pp
-0.0804374 10.9884176
-0.0804374 10.9884176
-0.0804374 10.9884176
ITEM: ATOMS id type x y z fx fy fz
1 1 0.0551516 10.8266001 0.0412092 -0.0151134 0.0605214 -0.0210004
2 1 3.6763301 0.211686 10.9202996 0.0199336 -0.119187 0.0080397
3 1 -0.100827 3.5987699 10.9693004 0.0334625 -0.0167102 0.0064279
4 1 3.50559 3.6768899 0.0524766 0.0739985 0.049075 -0.0957003
5 1 0.0204921 0.0917828 3.64222 -0.0900583 -0.0110969 0.0414126
6 1 3.49771 10.8944998 3.63255 0.082561 0.0771303 0.0077627
7 1 10.8256998 3.89152 3.5269301 0.0301739 -0.131712 -0.004685
8 1 3.4601901 3.5739901 3.5411101 0.0747849 -0.0083705 0.110365
9 1 0.161541 -0.0417512 7.4302902 -0.0654239 -0.0368353 -0.0460748
10 1 3.77266 0.208223 7.3250198 -0.0075495 -0.0432848 -0.029422
11 1 10.7750998 3.4988301 7.3358698 0.0295451 0.0599176 -0.0321114
12 1 3.4217601 3.87712 7.3268199 0.0307025 -0.0525609 -0.0638505
13 1 10.7385998 7.2817798 10.9193002 0.101226 -0.0145765 0.0202514
14 1 3.4630101 7.34202 0.0527908 0.0073017 0.0503945 -0.0761839
15 1 10.9175998 7.3849702 3.59214 0.0280269 0.0326734 -0.006303
16 1 3.6101501 7.4120302 3.5977199 -0.0202882 -0.0648953 0.0522975
17 1 0.0258682 7.2704702 7.27776 -0.0104736 -0.0343092 0.0076898
18 1 3.76435 7.3806801 7.2130098 -0.0436219 0.0450352 0.0475348
19 1 7.52842 10.6842003 10.8224001 -0.0258501 0.108231 0.0736952
20 1 7.44307 3.4331401 10.9427996 -0.0331499 0.0295522 0.036081
21 1 7.2610002 10.8679 3.5181799 -0.0044083 0.0388692 0.0145448
22 1 7.2927599 3.4680901 3.5065601 -0.0298135 0.0291557 0.0370906
23 1 7.3442302 10.8392 7.2743101 0.0331634 0.0482383 -0.0184119
24 1 6.9887 3.70364 7.39115 0.107196 -0.0518165 -0.0778378
25 1 7.1595602 7.1658001 10.9518004 0.0280862 -0.0431354 0.0285946
26 1 7.18577 7.1602998 3.67608 0.0316276 -0.0025295 -0.026848
27 1 7.3350902 7.2855301 7.2565699 0.0245102 -0.0159794 0.0209519
28 2 1.86978 1.78272 1.76392 -0.0515201 -0.0148786 -0.0032536
29 2 1.66124 1.92258 5.45469 0.014008 -0.002378 0.0060032
30 2 1.86914 1.96453 8.9249402 -0.0238719 -0.0185249 0.0724718
31 2 1.96058 5.4837899 1.89254 -0.085723 0.028708 -0.0181642
32 2 1.70625 9.1901598 1.95089 0.0019413 -0.0248689 -0.0335868
33 2 1.58267 5.3414602 5.2814498 0.0370345 0.0479648 0.047457
34 2 1.61473 9.07131 5.5187803 0.0394963 0.0277285 -0.0231696
35 2 1.85309 5.4104099 9.22579 -0.0581837 0.054483 0.0220969
36 2 1.90543 9.3183203 9.1408796 0.0240453 -0.0382863 0.0093246
37 2 5.3762598 1.85876 1.69427 0.0253774 -0.0133224 0.0238538
38 2 9.2167301 1.6957901 1.83472 -0.0037359 -0.0031587 -0.0223215
39 2 5.57514 1.65344 5.3189502 -0.015266 0.019097 0.0068717
40 2 9.0627499 1.6613601 5.6805902 -5.1680598e-04 0.0050038 -0.0469416
41 2 5.6849699 1.81151 9.1885405 -0.0474459 -0.0494468 0.0108635
42 2 9.2523604 1.59552 9.1215 -0.0178237 -0.0033535 0.0210868
43 2 5.3518801 5.5802398 1.83656 0.0047111 -0.0430053 -0.011882
44 2 9.2055998 5.6637101 1.76044 -0.0617827 -0.0408947 -0.0029589
45 2 5.6087499 9.0215597 1.7442301 -0.0397055 0.0205318 -0.0073423
46 2 8.9805604 9.09723 1.87739 0.0453281 -0.0266796 -0.0241694
47 2 5.4464698 5.3075099 5.41429 -0.0260797 0.0229213 -0.0229827
48 2 9.1220198 5.3637099 5.5328498 -0.0244432 0.0203892 -8.4854002e-04
49 2 5.4210201 9.2533598 5.4872799 0.0073619 -0.0114876 -0.0164679
50 2 9.0109701 8.9857502 5.2466102 0.0179535 0.0377085 0.0476178
51 2 5.4404202 5.5000801 9.1781597 -0.0419889 7.2445598e-04 0.0122941
52 2 9.1540899 5.4182501 9.0379896 -0.0211911 0.0029385 0.0138358
53 2 5.6390701 9.1040096 9.2335301 -0.0717161 -0.0078453 -0.0423492
54 2 9.2795296 9.0049105 9.0402098 -0.0168123 0.0281367 -0.0316491
