ITEM: TIMESTEP
172000
ITEM: NUMBER OF ATOMS
54
ITEM: BOX BOUNDS pp pp pp
-0.1053162 11.0132961
-0.1053162 11.0132961
-0.1053162 11.0132961
ITEM: ATOMS id type x y z fx fy fz
1 1 -0.0610351 -0.0859795 10.8694 0.0308448 -0.0136463 0.060562
2 1 3.66323 -0.0945747 11.0173998 0.0039737 0.0126357 -0.0086691
3 1 10.9538002 3.4296 0.0680744 0.11557 0.106309 -0.0965757
4 1 3.59235 3.59301 10.9093 0.0593351 0.0536942 0.0038932
5 1 0.0033304 0.0703446 3.6477001 -0.0930718 -0.112935 -0.0427569
6 1 3.6885901 10.9279004 3.61552 -0.0318533 -0.0185563 -0.0173771
7 1 0.0100202 3.6407199 3.7033899 -0.0134262 0.0226878 0.0099267
8 1 3.68435 3.4698 3.30971 -0.0908481 0.026396 0.0528512
9 1 0.0816163 -0.0116324 7.2083998 -0.0746138 -0.0127005 0.0657367
10 1 3.6427901 10.969 7.2968898 0.0159804 0.0302107 0.0338998
11 1 10.7452002 3.5969501 7.3331299 0.0674986 0.0099785 0.0354263
12 1 3.5465 3.57194 6.96162 -0.0256254 -0.0269791 0.0485124
13 1 10.9136 7.0227098 0.0874493 0.0135609 0.0628774 -0.0360312
14 1 3.6245501 7.3132901 10.9415998 -0.0042959 0.0019202 0.0504857
15 1 10.8634006 7.4025502 3.6988201 0.0499684 -0.0276307 -0.0195451
16 1 3.6600001 7.2782502 3.61095 -0.09088 0.0080411 -0.003393
17 1 10.9449998 7.2447701 7.2997298 0.0111971 0.0334274 0.0471887
18 1 3.6201899 7.1728301 7.3608699 -0.0385548 0.0059454 0.0098359
19 1 7.3857999 10.8079005 10.9518004 -0.0264115 0.10626 0.0338461
20 1 7.4474201 3.62269 -0.0408069 -0.0661636 -0.0332778 -0.0067831
21 1 7.3927002 -0.0588277 3.4558699 0.0036374 0.018247 0.0308109
22 1 7.1227298 3.6761899 3.6636601 0.125551 -0.0577064 -0.0015494
23 1 7.3773499 10.8865004 7.2857299 -0.0225856 0.0768764 -0.0206725
24 1 7.16188 3.63497 7.3544402 0.0528822 0.0472859 -0.071158
25 1 7.27948 7.3108201 -0.0168635 0.028427 -0.028701 -0.0324805
26 1 7.09587 7.4207602 3.55141 0.108986 -0.0116112 0.0415591
27 1 7.22334 7.4135599 7.2182598 0.0622639 -0.104504 0.0336192
28 2 1.63396 1.56011 1.76411 0.0614544 0.0448721 -0.0322173
29 2 1.71029 1.68451 5.3351202 0.066086 0.0445815 0.0314662
30 2 1.8377301 2.0081 9.2780399 -0.0478479 -0.0656426 -0.0670814
31 2 1.85771 5.5935602 1.87851 -0.0169487 -0.0279845 -0.016042
32 2 1.67189 9.2695799 1.65754 0.0074334 -0.0232456 0.0157726
33 2 1.78684 5.57479 5.4366298 -0.0198534 -0.0069932 -0.0090099
34 2 1.67212 9.1769505 5.5889302 0.0286829 -0.0276357 -0.0329778
35 2 1.75396 5.4896302 9.2757397 -0.0192685 -0.0129356 -0.0208689
36 2 1.83057 9.2255802 9.2863999 -0.0089048 -0.0205164 -0.0330123
37 2 5.4698701 1.7425701 1.66152 0.0287222 -0.0192008 -0.0202272
38 2 9.3146896 1.75496 1.62098 -0.0833182 -0.0798912 0.0844409
39 2 5.4637699 1.6075 5.1831799 0.0054978 0.0196348 0.0570647
40 2 8.95644 1.7636401 5.6594501 0.0203548 5.1104302e-04 -0.047723
41 2 5.5120602 2.00141 8.9758596 -0.0621944 -0.0872997 0.0663652
42 2 8.9900398 1.6701501 9.1507998 0.0209116 0.0152643 2.24683e-04
43 2 5.59691 5.4217201 1.73969 -0.0413328 0.0084771 -0.0214574
44 2 9.1598101 5.1571598 2.0427899 -0.0012494 0.0594895 -0.0356589
45 2 5.4222598 9.1859798 1.7107001 -0.0048943 0.0014837 -0.0070071
46 2 9.2340202 9.2030697 1.88133 -1.8532802e-05 -3.9035802e-04 -0.0338654
47 2 5.3938398 5.3895502 5.2908502 -0.0150507 0.0317329 0.042248
48 2 9.0498896 5.4710398 5.42591 -0.0063349 0.0021143 0.0046211
49 2 5.2544398 9.0199499 5.7258501 0.0217832 0.0359462 -0.081994
50 2 9.21521 9.2299404 5.3878598 -0.0181354 0.0152524 0.0192633
51 2 5.6773801 5.42943 9.2865896 -0.0462996 0.0178699 -0.0100205
52 2 9.0093098 5.5194898 9.1340904 0.0136242 -1.13205e-04 0.0021254
53 2 5.6002498 9.1340103 9.1539402 -0.0399774 -0.0036711 0.0033564
54 2 9.33566 9.4456902 9.1788101 -0.0142683 -0.0962545 -0.0589478
