ITEM: TIMESTEP
150000
ITEM: NUMBER OF ATOMS
54
ITEM: BOX BOUNDS pp pp pp
-0.1521258 11.0601063
-0.1521258 11.0601063
-0.1521258 11.0601063
ITEM: ATOMS id type x y z fx fy fz
1 1 11.0479002 10.9701996 10.9891006 0.0318129 0.0041825 0.0471351
2 1 3.6571701 -0.013541 0.060875 -0.0382834 -0.0431793 -0.0109487
3 1 -0.0797404 3.5174301 11.0340004 -0.0394464 0.0207295 -0.0086324
4 1 3.5632999 3.6010101 -0.0799871 -0.0155789 -0.0162125 -0.0269645
5 1 10.941 10.9326 3.60638 0.049661 0.0457327 -0.0243805
6 1 3.55244 0.0037681 3.79425 -0.0161547 -0.0477283 -0.034333
7 1 11.0585003 3.7084999 3.69048 0.0197828 -0.0261606 -0.0738229
8 1 3.6698101 3.6872101 3.5031801 -0.019847 0.0034746 0.046898
9 1 11.0391998 11.0228996 7.4605098 0.0810933 -0.0016546 -0.060957
10 1 3.5915001 11.0180998 7.4064102 0.020295 -0.0119714 0.0097777
11 1 -0.0828351 3.5766201 7.1960502 -0.0558133 -0.0015046 0.0909378
12 1 3.4677501 3.5021 7.2805901 0.0293561 0.0430811 -0.0014232
13 1 -0.0977516 7.2174702 11.0314999 -0.0281092 -0.0262638 -0.033966
14 1 3.6395099 7.1470199 11.0044003 -0.0305154 0.0160284 0.065644
15 1 10.9406996 7.2758498 3.6414001 0.051821 0.0400124 -0.0598186
16 1 3.39573 7.2726498 3.46454 0.0652022 0.0421745 0.0479395
17 1 11.0316 7.2248402 7.1729398 -0.0216141 0.0126131 0.0794086
18 1 3.50224 7.3573399 7.4491802 0.0397041 -0.0584017 -0.0884811
19 1 7.24018 -0.0873401 -0.0010241 0.0198212 -0.0591323 -0.0619216
20 1 7.1823101 3.4570899 11.0513001 0.0523655 0.057851 -0.0047304
21 1 7.2939601 -0.0903621 3.5878501 0.0036734 -0.0121192 0.0544777
22 1 7.4305601 3.6439901 3.5672601 -0.0152805 0.001208 -0.0101833
23 1 7.51122 0.0619622 7.3623901 -0.0736241 -0.0353491 0.0073531
24 1 7.27004 3.6738601 7.1689601 0.0250863 -0.0118912 0.0477768
25 1 7.1746702 7.4123602 10.8892002 0.104672 -0.0409354 0.0084047
26 1 7.4034901 7.4931999 3.47204 -0.0204775 0.0044053 0.0123815
27 1 7.3053799 7.3171902 7.26542 0.0203823 0.0685143 0.0199538
28 2 1.34223 1.76866 1.83292 0.0465382 -0.0230805 0.0026112
29 2 1.65187 1.79961 5.4035101 0.0019864 -0.0189118 2.4215601e-04
30 2 1.79757 1.47824 9.2108803 -0.0115364 0.0361833 0.0122792
31 2 1.67353 5.6020198 1.6097601 -0.0042533 -0.0469805 0.0219444
32 2 1.7112 9.2293301 1.82935 -0.0056697 0.0059364 -0.0193509
33 2 1.7748701 5.46907 5.5147 0.0043126 -0.001323 -0.0165445
34 2 1.7196 8.9353 5.5780101 -0.0010073 0.0515721 -0.0301936
35 2 1.7230801 5.5772901 9.16537 -0.0123655 -0.0507293 -0.0060673
36 2 1.78226 8.8959198 9.4219504 -0.0190862 0.0724102 -0.0291725
37 2 5.5135103 1.77473 2.06709 -0.0144134 -0.0016169 -0.0573609
38 2 9.1108198 1.56074 1.68169 0.0287536 0.0329467 0.0120006
39 2 5.4446302 1.7670701 5.51263 0.0057183 1.07724e-04 -0.0022817
40 2 9.3673802 1.76782 5.4246998 -0.026041 -0.0090012 -7.6848502e-04
41 2 5.2962699 1.96035 9.0713997 0.0271365 -0.0466993 0.0186178
42 2 9.3968401 1.6606801 9.2834797 -0.0347899 0.0256097 -0.0085399
43 2 5.7803202 5.6631499 1.76694 -0.0528895 -0.047127 -0.0123826
44 2 9.1498203 5.5237298 1.7530101 0.0103402 -0.010821 -0.024356
45 2 5.39397 8.9674196 1.5464701 -0.0111884 0.0439843 0.0358187
46 2 9.44242 9.0220499 1.35137 -0.0745903 0.0258063 0.0700749
47 2 5.72156 5.6727801 5.4755502 -0.075121 -0.0353782 -0.0569552
48 2 9.0901098 5.5871802 5.3176298 0.0014489 -0.0207915 0.027974
49 2 5.5436402 9.1231403 5.3375602 -0.021392 0.0140349 0.0146716
50 2 9.3212605 9.4312897 5.5647502 -0.0484236 -0.0566222 -3.33846e-04
51 2 5.4239402 5.2855401 9.1779003 -0.0014656 0.0221906 -0.0109032
52 2 9.1240702 5.4201198 9.0907602 0.0066105 -0.0027036 0.0098372
53 2 5.1936598 8.9998504 9.2664404 0.0398749 0.0677669 -0.0148007
54 2 9.1935196 9.0622501 9.0087099 0.0015282 0.0057332 0.0264142
