ITEM: TIMESTEP
142000
ITEM: NUMBER OF ATOMS
54
ITEM: BOX BOUNDS pp pp pp
-0.0896983 10.9976788
-0.0896983 10.9976788
-0.0896983 10.9976788
ITEM: ATOMS id type x y z fx fy fz
1 1 -0.073547 0.0584388 10.9666004 -0.0092613 -0.0435403 -0.0147145
2 1 3.66079 -0.0773603 10.9867002 -0.0045066 -0.0418721 -0.0177955
3 1 0.0663578 3.65589 -0.0403749 -0.0397218 -0.006576 0.0243002
4 1 3.6231501 3.5443001 -0.0239152 0.0247132 0.0468591 0.0418308
5 1 -0.0674545 -0.0105839 3.41028 -0.0468655 -0.10241 0.0437171
6 1 3.43692 10.7529001 3.48049 0.0534022 0.088991 0.0079174
7 1 -0.0242448 3.4589601 3.71206 -0.063186 0.120289 -0.0542497
8 1 3.5709 3.58317 3.79758 -5.7783299e-04 -0.0403047 -0.0705275
9 1 -2.6105099e-04 -0.0521519 7.1136999 -0.0613153 0.0177942 0.0940019
10 1 3.6638501 -0.0855692 7.02002 0.0130707 0.0433394 0.0834986
11 1 10.8534002 3.68611 7.27384 0.0061508 -0.0751953 -8.7511692e-05
12 1 3.4823001 3.56702 7.33496 0.014973 0.0051157 0.0284791
13 1 10.8610002 7.2789502 10.8963004 0.0419227 0.0309602 0.0216239
14 1 3.58281 7.2671099 -0.0358205 0.0478975 -0.0319485 -0.0932886
15 1 -0.051315 7.2566099 3.5387299 0.0392711 -0.005488 -0.0371535
16 1 3.6215601 7.2774801 3.5734701 0.0657344 -0.0256171 0.0562021
17 1 10.9662 7.2824202 7.1171899 -0.0423259 0.0351344 0.0664287
18 1 3.4728101 7.4530001 7.2277899 0.0435913 -0.0523059 0.0474433
19 1 7.27177 0.0028615 0.0235034 0.0011409 -0.150489 -0.0862987
20 1 7.3992 3.4035101 0.0133641 -0.0039363 0.123961 0.0255054
21 1 7.19944 -0.029231 3.4136601 0.0396345 0.0031407 0.150198
22 1 7.1561499 3.5500901 3.8118501 0.0692424 0.0602551 -0.0665988
23 1 7.3568201 0.0251886 7.33355 -0.0086663 -0.0516262 -0.0383125
24 1 7.2802401 3.6097501 7.5250702 -0.0120584 0.0531857 -0.0496774
25 1 7.2971902 7.1537399 10.8633004 0.0070175 0.0784956 -0.0261764
26 1 7.49822 7.3815498 3.7093401 -0.0816218 -0.0213523 -0.0937434
27 1 7.19068 7.4475899 7.1777601 0.0191397 -0.0401454 0.0672242
28 2 1.86133 1.77588 1.88637 0.0012523 0.0081234 -0.0333166
29 2 1.62738 1.6651501 5.34371 0.0618226 0.0084497 0.0223637
30 2 1.94887 1.73966 9.3487997 -0.039788 2.08148e-04 -0.0570723
31 2 1.9468 5.5339999 1.91821 -0.0449349 -0.0574935 -0.037867
32 2 1.84826 8.9144402 1.54627 -0.0671611 0.0662157 0.0508445
33 2 1.7754901 5.5110998 5.5076099 -0.0047393 -0.016677 -0.0201024
34 2 1.70065 9.2569504 5.53227 0.0060881 -0.0485831 -0.063477
35 2 1.52265 5.3776202 8.93254 0.0528646 0.0397158 0.0431968
36 2 1.57584 9.1743403 9.2904902 0.0265928 -9.4703303e-04 -0.0373699
37 2 5.3959799 1.8005001 1.73884 -0.0116931 -0.0012686 0.0270696
38 2 9.08288 1.77363 1.97901 0.017544 0.0278277 -0.0419876
39 2 5.6567102 1.75149 5.5964198 -0.0565886 8.56281e-04 -0.0085077
40 2 9.0589705 1.72622 5.3896799 0.0175494 -0.0037724 0.0114054
41 2 5.5149598 1.88073 9.2676697 -0.0290221 -0.0409968 -0.0184192
42 2 8.9791298 1.52991 9.2369499 0.0706267 0.0761533 -0.0122394
43 2 5.7419901 5.6125798 1.63791 -0.0696085 -0.0547697 0.0672185
44 2 8.99012 5.30614 1.7797101 0.0393029 0.0139911 0.0159969
45 2 5.50276 9.1702299 1.91816 -0.0108017 -0.0437537 -0.0576572
46 2 9.1375504 9.1213703 1.7897901 0.0061335 0.0093001 -0.0261561
47 2 5.3513599 5.3168402 5.4664502 0.0134448 0.0489566 0.0355754
48 2 9.1224899 5.4952402 5.3659401 0.00656 -0.0288185 0.0200108
49 2 5.7119899 9.3548298 5.33147 -0.0484245 -0.0231954 0.0127682
50 2 9.4294005 9.1881599 5.2692399 -0.0448359 0.0226378 0.0168384
51 2 5.2989702 5.2551398 9.2601404 0.0188621 0.0380568 -0.0193733
52 2 9.2366305 5.3241701 9.2893696 -0.0313854 4.9321098e-04 -0.0241498
53 2 5.47227 9.3654003 9.0306902 -0.0069216 -0.0229363 0.0159933
54 2 9.0980701 9.3461905 9.0970202 0.0144023 -0.0364238 0.0086668
