ITEM: TIMESTEP
122000
ITEM: NUMBER OF ATOMS
54
ITEM: BOX BOUNDS pp pp pp
-0.0789677 10.986948
-0.0789677 10.986948
-0.0789677 10.986948
ITEM: ATOMS id type x y z fx fy fz
1 1 0.182212 10.9578 10.8911 -0.157817 0.0120999 0.0251128
2 1 3.615 0.0938044 10.8476 0.0463917 -0.0396965 0.0927269
3 1 -0.0987741 3.5541301 10.8320999 -0.0027254 0.017372 0.0618386
4 1 3.65567 3.62688 0.0571003 -0.0260635 0.0375112 -0.0175942
5 1 10.6450005 10.9113998 3.5758801 0.103095 0.0325084 -0.0058536
6 1 3.4212601 10.9729996 3.52861 0.0386278 0.0095323 0.0323398
7 1 0.115103 3.62112 3.5264299 -0.044558 -0.0242833 0.0403631
8 1 3.7346499 3.50686 3.6791601 -0.0199488 -0.0223966 0.0238663
9 1 10.8627996 0.053891 7.3196998 0.134272 -0.104354 -0.0378418
10 1 3.62425 0.0192351 7.2274699 -0.0190635 -0.0062965 -0.027953
11 1 0.0651213 3.66519 7.3325 -0.0282695 0.0446058 -0.0524545
12 1 3.6485601 3.67714 7.4612999 -0.0085386 -0.0540426 -0.0571409
13 1 10.9262 7.3087802 10.9046002 0.0245979 -0.0275206 0.0034967
14 1 3.5179701 7.34023 10.7876997 0.0056501 0.0040494 0.0461469
15 1 10.9943 7.3035302 3.7641599 -0.0494871 -0.0235272 -0.110037
16 1 3.4407499 7.2213802 3.46524 0.086597 0.0370094 -0.0182941
17 1 -0.0229493 7.4797101 7.1891499 -0.0101395 -0.0562819 0.0834353
18 1 3.6638201 7.3491402 7.19947 -0.008072 0.0095596 -0.013198
19 1 7.3865299 -0.0690009 -0.0563437 0.0073553 -0.0329425 0.0168995
20 1 7.2813401 3.5850401 0.18432 0.0240829 -0.0015968 -0.0831844
21 1 7.1636701 10.8781004 3.6674299 -0.0449151 0.0029435 -0.0750379
22 1 7.49819 3.4935401 3.7318599 -0.013268 0.0028431 0.044013
23 1 7.4145198 0.05387 7.2607699 -0.0876729 -0.0428181 0.0123
24 1 7.4012499 3.73876 7.5456701 0.0137392 -0.0762773 -0.0566287
25 1 7.15448 7.2863002 -0.0143995 0.0193892 -0.0281081 -0.0334926
26 1 7.2838001 7.1943798 3.7570601 -0.0317539 0.0055013 -0.0585791
27 1 7.4264002 7.3243399 7.2814899 -0.0573116 0.0441186 0.037318
28 2 1.6794501 1.74992 1.71802 0.0184835 0.0081503 0.0023714
29 2 1.658 1.61971 5.61446 0.0197152 0.0407524 -0.0582849
30 2 1.79405 1.6753301 9.0638399 -0.0021885 0.0457157 -0.0078642
31 2 1.58582 5.5007501 1.73171 0.0238025 0.004396 -0.0307986
32 2 1.69914 9.4067698 1.77456 -0.0021483 -0.0893229 -0.0052808
33 2 1.97529 5.43503 5.3024302 -0.0450426 -0.0185096 0.0522393
34 2 1.6603301 9.18221 5.38095 0.0297087 0.0304212 0.0050974
35 2 1.75572 5.4846101 9.17803 -0.0039867 -0.0011307 -0.0145555
36 2 1.7102601 9.12922 9.06602 0.0240948 0.0116245 -0.0187692
37 2 5.46033 1.6836801 1.82786 2.7809999e-04 -0.0062168 -0.0012438
38 2 9.20613 1.80626 1.79133 0.0015417 -0.0077972 -0.0164283
39 2 5.6301198 1.71961 5.3912401 -0.0373208 0.0222161 0.0322001
40 2 9.32938 1.88198 5.6343999 -0.0412956 0.0247053 -0.0489351
41 2 5.5896602 1.5906201 9.1317596 -0.0037278 0.0674152 -0.0017647
42 2 9.2446299 1.5625201 9.1690903 -0.0354311 0.0760522 0.0459389
43 2 5.56743 5.1870699 2.03039 -0.0120259 0.0597552 -0.0168692
44 2 9.11448 5.4656401 1.88625 0.0163059 -0.0039002 -0.0118756
45 2 5.3016 8.9542504 1.6518101 -8.9737396e-04 0.0435442 0.0284153
46 2 9.2052298 8.7937403 1.6721601 -0.0327253 0.065897 0.0428823
47 2 5.3161998 5.4109202 5.4284802 0.0387884 0.00661 0.0148036
48 2 9.1869402 5.40624 5.4857502 0.0145721 -6.9790102e-06 0.0099662
49 2 5.36554 9.2760897 5.5068898 0.0086394 -0.0275899 -0.0104888
50 2 8.96278 9.19907 5.3798599 0.0312366 -0.022786 0.0354494
51 2 5.4391299 5.3980899 8.9616604 0.0099442 0.0702147 0.0797443
52 2 9.1197004 5.6350599 9.1244497 0.0243737 -0.0178203 0.020789
53 2 5.1984601 9.44378 9.1255398 0.0794582 -0.0860812 -0.0174732
54 2 9.2255802 9.2357502 9.07234 -0.0183474 -0.0158204 0.0181673
