ITEM: TIMESTEP
124000
ITEM: NUMBER OF ATOMS
54
ITEM: BOX BOUNDS pp pp pp
-0.1062094 11.0141897
-0.1062094 11.0141897
-0.1062094 11.0141897
ITEM: ATOMS id type x y z fx fy fz
1 1 10.9869004 10.6976996 10.9674998 -0.0171597 0.0629617 0.0297481
2 1 3.4201401 0.121875 11.0045996 0.0429763 -0.0360549 -0.0539442
3 1 10.8939 3.6385901 10.9686004 0.0167319 -0.0520614 0.0498154
4 1 3.5885201 3.69837 0.0684091 -0.0325223 -0.0308773 -0.0333828
5 1 -0.0372822 -0.0138066 3.50158 -0.0043199 -0.0246443 0.0495658
6 1 3.7117601 -0.0816302 3.33899 -0.0119963 -0.011636 0.101446
7 1 10.8971004 3.70009 3.6840799 -0.0027808 -0.0514181 -0.0509689
8 1 3.5948999 3.48246 3.65044 -0.0696844 0.0207983 0.0012909
9 1 0.110767 10.8715 7.4019899 -0.0662405 0.054316 -0.0594158
10 1 3.7098301 10.8406 7.3771501 -0.0432049 0.0555233 -0.0350566
11 1 -0.134165 3.5014501 7.23141 0.0079096 0.0079464 0.0345112
12 1 3.6600001 3.45908 7.40836 -0.0043412 0.0292169 -0.029228
13 1 -0.0816838 7.0507898 10.9954004 -0.0074813 0.108241 0.0231793
14 1 3.6382699 7.2561498 -0.0988503 -0.0274808 0.0635725 0.0110911
15 1 -0.0707636 7.1702499 3.68646 -0.0285072 0.0891017 -0.0332192
16 1 3.63761 7.3066402 3.69434 -0.0173895 -0.0389449 -0.0318202
17 1 0.118036 7.2480302 7.2860599 -0.074871 0.016247 0.0297124
18 1 3.66569 7.2068901 7.31106 0.0406825 -0.0060343 0.0203143
19 1 7.3748999 -0.002842 -0.0560195 -0.0045072 0.0367122 -0.0933543
20 1 7.1993198 3.7837999 0.0238282 0.0916347 -0.0595617 -0.145094
21 1 7.33563 10.8694 3.5906301 0.015829 0.0562368 0.0241324
22 1 7.1335101 3.5225201 3.4482501 0.0957432 -0.0169491 0.099142
23 1 7.23908 10.9859 7.3069801 0.0792687 0.0230866 0.0233482
24 1 7.3093701 3.6467901 7.2066598 -0.0132863 -0.023693 0.0380648
25 1 7.2172198 7.4569202 -0.0389579 0.0469126 -0.0168108 -0.0339513
26 1 7.1531401 7.20083 3.6530099 0.0192305 0.0752173 -0.0389898
27 1 7.2922301 7.3427801 7.3224301 -0.0063969 -0.0288496 -8.61164e-04
28 2 1.6250301 1.88555 1.83522 0.0083308 0.0023997 -0.0242335
29 2 1.7831301 1.8393102 5.5316701 -1.59751e-04 -0.0346332 -0.0135727
30 2 1.73258 2.19262 9.3401003 0.0017214 -0.0876967 -0.0283053
31 2 1.69082 5.3424502 1.77788 0.0049784 0.0157611 0.0169597
32 2 1.95075 8.9886104 1.90995 -0.0473525 0.0195403 -0.0419679
33 2 1.78908 5.4614702 5.6069498 0.0202348 -0.0418944 -0.0378264
34 2 1.92474 9.1419802 5.3996101 -0.0216579 0.0143719 0.0069259
35 2 1.91598 5.4232998 9.1982002 -0.0203969 0.0026312 -0.0099994
36 2 1.75273 9.1741104 9.23948 0.0435327 -0.0510517 -7.0518403e-04
37 2 5.53231 1.8955802 1.63028 -0.0466952 -0.0662099 -0.0035205
38 2 9.1999903 1.76559 1.45573 0.0076332 0.0049955 0.0764217
39 2 5.50525 1.5938801 5.4559303 -0.0141986 0.0187562 -0.0096032
40 2 9.0951099 1.81309 5.3657999 -0.0047806 -0.0225013 0.002141
41 2 5.56074 1.91449 9.2099304 -0.0013595 -0.0316026 0.0121385
42 2 9.0977898 1.86467 9.3383103 -0.0059425 -0.0158786 -0.0522797
43 2 5.4331899 5.4408303 1.65107 -0.027793 0.0498527 0.064858
44 2 8.8348503 5.6048699 1.72631 0.0702577 -0.0136577 0.0197545
45 2 5.6060801 9.4776697 1.46082 -0.0875001 -0.0618193 0.0678173
46 2 9.18328 9.3095999 1.8429102 0.0020982 -0.0575208 -0.0110044
47 2 5.3741999 5.2305198 5.1872602 0.006726 0.0368178 0.0765667
48 2 8.7609797 5.4720702 5.3343601 0.0849855 -0.0248872 0.0199671
49 2 5.4226299 9.2853403 5.3860698 0.003287 -0.0334406 0.0027966
50 2 9.1825399 9.1516399 5.5146799 0.0097535 -0.003862 -0.0058117
51 2 5.42482 5.2727599 9.3319998 -0.0068858 0.0528604 -0.0555599
52 2 9.4008303 5.4390998 8.97223 -0.0520126 0.0024174 0.003857
53 2 5.3928399 9.2068901 9.2407799 0.0161094 -0.0108015 0.0071761
54 2 9.0986605 8.92653 9.0773802 0.0323376 0.0354108 0.020933
