ITEM: TIMESTEP
126000
ITEM: NUMBER OF ATOMS
54
ITEM: BOX BOUNDS pp pp pp
-0.08985 10.9978314
-0.08985 10.9978314
-0.08985 10.9978314
ITEM: ATOMS id type x y z fx fy fz
1 1 10.8372002 10.8266001 -0.0224317 0.0781541 0.0524675 -0.0208217
2 1 3.46888 10.9792004 10.9013996 0.0262652 0.0070122 0.0276816
3 1 10.9383002 3.63783 0.0413671 -0.0342766 -0.0076078 -0.056066
4 1 3.3557899 3.6211 10.9854002 0.0857691 -0.023453 0.0012056
5 1 0.0103397 10.9185 3.71502 -0.0316029 0.0127028 -0.0161779
6 1 3.6475799 10.9228002 3.6287101 -0.0137146 0.0110823 -0.0407714
7 1 10.8619004 3.54403 3.6900101 0.097617 -0.0269315 -0.0228532
8 1 3.53911 3.44594 3.47908 0.0205597 0.0430588 0.0428089
9 1 10.9227 0.0946838 7.3344498 0.0131964 -0.0297572 0.0512433
10 1 3.4296501 10.8659 7.2727199 0.0830772 0.0971057 0.0602789
11 1 -0.0438237 3.7646001 7.10993 0.0219455 0.0085238 0.106923
12 1 3.6721001 3.5794201 7.3102102 -0.0208441 -0.0318277 -0.0035623
13 1 0.137284 7.2144599 0.15634 -0.074653 0.0036641 -0.0900224
14 1 3.6383801 7.23627 0.0658795 0.0384394 0.0214246 -0.0718794
15 1 0.136968 7.3872199 3.69731 -0.0189966 -0.044786 0.0087353
16 1 3.88393 7.32687 3.6122301 -0.0933387 -0.0960334 0.00684
17 1 10.9925004 7.6069598 7.25382 -0.0307264 -0.0784997 0.0479739
18 1 3.4809201 7.2582798 7.2678199 0.0579969 -0.0264036 0.0404344
19 1 7.3262901 -0.0862479 10.7409001 -0.0538066 0.0146272 0.0575099
20 1 7.2233801 3.5497301 -0.0175667 0.0044607 0.0122781 -0.0102947
21 1 7.3002801 10.8948002 3.3617001 0.0673531 0.0699405 0.0496781
22 1 7.3809099 3.72291 3.70469 -0.071141 -0.0475218 -0.0126434
23 1 7.1404901 0.0686657 7.2010598 0.0108523 0.0020001 -0.0306339
24 1 7.4499898 3.8359201 7.3372898 -0.0914724 -0.0570225 -0.0408133
25 1 7.3389301 7.3060498 10.9745998 0.0133692 -0.0097715 0.0135497
26 1 7.47682 7.4271403 3.58404 -0.0036212 -0.108174 -0.0067688
27 1 7.1405401 7.5236802 7.33214 0.0188337 -0.0478558 -0.0455481
28 2 1.62971 1.55058 1.82979 0.0130377 0.0294681 -0.0196618
29 2 1.86628 1.76586 5.5043602 -0.021147 1.89942e-04 -0.0107784
30 2 1.41363 1.90426 9.29562 0.0377997 -0.0336367 -0.0315938
31 2 1.7208801 5.3891702 1.95863 0.0196089 -0.0064284 -8.3086596e-04
32 2 1.8972 9.26091 1.77412 -0.0178932 -0.0312793 0.0085284
33 2 1.80898 5.50842 5.4349098 0.0105021 -0.0147627 -0.0152242
34 2 1.90592 9.2050896 5.5680599 -0.0671401 -0.0475357 -0.0855967
35 2 1.7446801 5.4112501 9.1233597 -0.0152158 0.0183712 -0.0046242
36 2 1.73409 9.0036001 9.1933498 0.0056536 0.0218695 0.0190756
37 2 5.59271 1.70073 1.84873 -0.0351032 0.0158719 -0.0322162
38 2 9.2848101 1.77665 1.66748 -0.0459044 -0.0284487 0.0318117
39 2 5.3973999 1.62373 5.2518702 0.0145793 0.0346375 0.024103
40 2 9.1739903 1.42654 5.4324298 -0.0399694 0.0763836 -0.0463247
41 2 5.24753 1.71613 9.1795301 0.0189335 0.0095362 -0.0036988
42 2 9.1337004 2.08657 8.8921204 0.0234771 -0.0568274 0.067005
43 2 5.4907298 5.45677 1.74071 0.0091783 -0.0159383 0.0120069
44 2 9.3024702 5.2820201 1.93026 -0.0444295 0.0780454 -0.0299545
45 2 5.5018101 9.1108399 1.78115 -0.0066192 0.0061526 -0.046125
46 2 9.3302603 8.9653102 1.7457301 -0.0264303 0.0152553 0.0188437
47 2 5.46139 5.21206 5.5636401 -0.0122928 0.0592054 -0.0348535
48 2 9.1286497 5.6599102 5.6005502 0.0126677 0.0116764 -0.0415016
49 2 5.4356799 9.0935202 5.2712898 0.0427856 0.0496107 0.0689083
50 2 9.0356998 9.07201 5.4900799 0.021932 0.0589608 -9.7825499e-04
51 2 5.5241099 5.32092 9.1754599 -0.026372 0.0305944 0.0086831
52 2 9.0270004 5.7308603 8.86477 0.0669149 0.0112801 0.0733197
53 2 5.44557 9.2688799 8.9709798 -0.0400865 -7.8245502e-04 0.0485734
54 2 9.1371002 9.1711197 9.1645699 0.0018375 -0.0117112 -0.0229024
