ITEM: TIMESTEP
146000
ITEM: NUMBER OF ATOMS
64
ITEM: BOX BOUNDS pp pp pp
0.0 100.0
0.0 100.0
0.0 100.0
ITEM: ATOMS id type x y z fx fy fz
1 1 57.8790016 51.3459015 50.6020012 -0.0117994 0.0089858 0.0033767
2 1 50.0005989 46.3283005 41.0223007 -0.0149088 0.0184689 -0.0015033
3 1 60.5620003 50.808899 47.8688012 -0.0067853 3.33126e-04 -0.0046976
4 1 46.0376015 48.8585014 46.2352982 0.0061765 0.0393493 0.0392449
5 1 51.1825981 54.6772003 44.3563004 0.0058554 0.0170788 -0.0072929
6 1 42.9952012 52.2212982 47.8973008 0.0042976 0.0540208 -0.0577558
7 1 56.8658982 51.3633995 46.1939011 -0.0106985 -0.0089272 0.0058719
8 1 46.9301988 45.7616005 44.4592018 0.0092558 0.0024675 -0.0053591
9 1 45.8903008 50.8862 52.425499 -0.0095724 0.0681033 -0.0650114
10 1 55.514 45.5153008 47.9687996 0.0010942 -0.0159201 -5.2337999e-04
11 1 53.6713982 48.6421013 47.6118012 0.0146052 0.0224177 -0.0853445
12 1 47.2566986 49.1968994 36.6257019 0.0115622 -0.0011269 0.0160471
13 1 43.8381005 45.3963013 50.1787987 0.003924 0.0162815 -0.014556
14 1 48.4000015 55.9477998 51.6479988 -0.0073516 -0.0219524 -0.0161068
15 1 53.9580994 53.1069984 48.9385986 -0.0521398 0.079957 0.0292109
16 1 51.6063004 45.3965988 46.3502007 -0.0465368 0.0729181 -0.0658261
17 1 46.1147003 47.5847016 40.0443001 0.0489837 0.0403908 -0.0039929
18 1 49.0181007 52.0129013 49.8903008 -0.0163088 0.0119571 -0.0311606
19 1 43.7468987 49.3865013 49.7765999 -0.0141166 -0.0509039 0.0551552
20 1 53.911499 50.3852005 58.104599 -0.0065216 0.0094651 0.0031918
21 1 48.7937012 52.3614998 45.7909012 -0.0479642 0.0522066 0.0054898
22 1 50.1734009 49.7174988 52.6609993 -0.0485345 -0.0683087 0.0246189
23 1 41.3445015 55.6971016 49.0429993 -0.0073617 -0.0025344 -0.0117325
24 1 49.9090004 49.1223984 46.2901001 0.047096 -0.0539743 0.0025664
25 1 44.7181015 54.6122017 50.0633011 0.0493154 -0.002109 0.0125578
26 1 42.4911995 47.6674996 46.8288002 -0.0203187 -0.00289 -0.0100617
27 1 54.3404999 49.7249985 51.7032013 -0.0152994 0.0088569 -0.0277729
28 1 52.9208984 51.3442001 44.089901 0.0182171 -0.027256 -0.0305006
29 1 44.6239014 47.5737 53.4399987 -0.0451547 -0.0272873 -0.0021101
30 1 44.6383019 52.4303017 44.0595017 0.0241611 -0.0120117 0.0057323
31 1 49.4426995 50.9132004 42.148201 -0.0141754 0.0028786 0.0101452
32 1 47.0077019 47.6755982 50.5675011 0.0275349 0.0038584 -0.0259821
33 2 47.9641 54.3524017 43.2549019 0.0105363 -0.02154 0.0134621
34 2 52.7697983 43.8922006 48.4612999 0.0452011 -0.0486768 0.0707425
35 2 51.2067986 46.8852006 37.1543007 -0.0080981 0.003235 0.010102
36 2 49.4113007 49.4673004 39.3451004 -0.0161704 -0.0180276 8.9219104e-04
37 2 55.8694 53.6004982 51.8662988 -0.0064874 -0.0180079 -0.0186107
38 2 50.7625008 56.4438019 37.8054009 -1.6657e-04 -5.0207295e-04 6.1554799e-04
39 2 46.5135002 50.5555001 49.0875015 -0.0179989 -0.0173484 -0.0079661
40 2 52.030201 54.8252983 47.4054985 -0.0231833 0.0362702 -0.0101422
41 2 48.1987991 52.457901 53.7036019 0.0169359 -0.0043079 -0.0162826
42 2 48.3293991 46.9524002 47.6866989 -0.0148495 -0.0060584 8.8585502e-04
43 2 46.0457001 50.6032982 41.345501 0.0092564 3.9748998e-04 0.0044808
44 2 47.5382996 55.899601 48.2559013 -0.0061799 -0.015191 0.0151729
45 2 44.2354012 45.8904 41.5600014 -0.0187599 -0.0221169 0.0306837
46 2 43.9855004 55.926201 47.0238991 -0.0030557 -0.0185718 0.0195221
47 2 55.9353982 48.4915009 45.2883988 -0.0128818 0.0011572 0.0148924
48 2 45.1231003 46.0129013 47.2027016 0.0028774 0.0036236 0.0086975
49 2 53.4612999 46.7860985 50.0290985 0.0188959 -0.0213166 0.0150232
50 2 46.0950012 44.2165985 52.0407982 -0.0015736 0.0195197 -0.0026362
51 2 47.6643982 48.8078003 43.5975991 0.0116419 -0.0134251 0.0090053
52 2 52.0623016 51.7533989 46.8521996 -0.0329433 -0.040787 0.0453316
53 2 47.0415993 49.047699 54.3844986 0.0543151 -0.0134478 0.0293403
54 2 40.6052017 50.3927002 48.1399002 0.0076356 -5.9074402e-04 -0.0281499
55 2 40.3578987 48.6659012 50.6753006 0.0183495 -0.0172442 0.0302964
56 2 51.885601 49.4424019 49.7280007 -0.0752492 0.0567022 0.0427133
57 2 52.2722016 52.9746018 59.5553017 0.0059177 -0.0095726 -0.0056247
58 2 50.0219002 43.1254997 40.7176018 -0.0011141 0.0086143 0.001284
59 2 42.7935982 52.1640015 51.1128998 0.0169609 -0.0072094 -0.0087816
60 2 40.5154 51.0816994 53.7487984 0.0027996 -0.0023341 -0.008945
61 2 43.7616005 50.877102 54.6987 0.007229 -0.012064 -0.0086157
62 2 51.4127007 52.0876007 51.6167984 0.079073 0.0721266 -0.0089365
63 2 56.7789002 54.4532013 46.1430016 -0.0078878 0.0010134 0.0064683
64 2 55.4435005 50.7424011 48.8507004 0.0624428 -0.109113 0.0091605
