ITEM: TIMESTEP
172000
ITEM: NUMBER OF ATOMS
64
ITEM: BOX BOUNDS pp pp pp
0.0 100.0
0.0 100.0
0.0 100.0
ITEM: ATOMS id type x y z fx fy fz
1 1 50.6405983 46.5163994 45.2265015 -0.0056897 -0.05798 -0.0407863
2 1 42.9528008 54.1828995 42.6590004 0.0361417 0.0325423 0.0086196
3 1 56.5498009 45.7869988 48.2444 0.0093155 0.0137948 0.0026281
4 1 51.8526002 47.4348984 41.6376 -0.0161296 0.0183549 0.001872
5 1 53.2154007 49.146801 47.4118996 -0.0096526 -0.0243455 -8.8790198e-04
6 1 51.9936982 54.0632019 42.0117989 -0.0257008 0.0385209 0.0169066
7 1 53.8370018 44.1969986 46.4081993 -0.0126544 -0.0092456 -0.0492828
8 1 47.2034988 48.8694 45.0229988 -0.0241366 -0.0016173 0.0456287
9 1 49.4337006 53.6907006 45.2550011 0.0821542 -0.127671 0.0880761
10 1 45.6389008 51.0026016 42.0862999 0.0210379 0.0053189 -0.0038139
11 1 45.7330017 43.0088005 45.4928017 0.0216868 0.025098 1.4532501e-04
12 1 48.7747994 53.5629998 39.0713997 0.0399337 0.106589 -6.6940704e-04
13 1 46.6358986 58.0614014 49.3530007 -0.0034162 -0.0184582 -0.0074238
14 1 56.4793015 49.0295982 38.4874001 -0.0043668 0.0011204 0.0027534
15 1 41.7476998 50.8111 42.5009995 0.0065741 -0.060036 0.0043518
16 1 42.9132004 45.6100006 46.4590988 0.0214357 0.0206444 0.0040095
17 1 47.3142014 53.2198982 49.0074005 -0.0158629 0.0175319 0.04042
18 1 50.3818016 47.4141998 50.1865997 -0.0516859 0.105791 -0.0696738
19 1 47.1977997 59.9910012 43.9524994 0.0067201 -0.0244921 0.0118093
20 1 45.5811997 47.1982002 41.9931984 0.0286232 -0.023493 -0.0164216
21 1 50.3525009 51.2391014 48.4364014 0.003329 0.0358607 0.0495303
22 1 52.8527986 55.608799 45.4207001 -0.0178772 -0.011701 0.0039827
23 1 46.7428017 56.0747986 42.7853012 0.0115287 0.0013045 -0.0071521
24 1 46.6791992 47.7584992 49.3008995 0.0498233 -0.0053701 0.0372411
25 1 51.982399 57.5241013 40.7078018 -0.0029001 0.0081725 0.0044419
26 1 50.3554993 51.0550003 42.2787018 -0.0827204 -0.0620745 0.0475359
27 1 49.2967987 50.5768013 52.1862984 -0.0038625 -0.0191808 -0.0138222
28 1 53.4678993 45.852501 50.7010002 0.0600311 -0.0281798 0.0244977
29 1 49.6775017 58.7949982 47.3028984 7.58563e-04 -0.0273086 -0.0260842
30 1 55.3689995 55.0647011 41.5477982 0.037873 0.013011 8.4798699e-04
31 1 44.4303017 50.9350014 47.9869004 0.0189652 0.025502 0.0138486
32 1 46.0889015 53.1789017 45.1800995 -0.132487 0.0187721 -0.0212761
33 2 52.4062996 50.0196991 50.8405 -0.0275232 -0.0085588 -0.0229259
34 2 52.1842995 46.0568008 47.9928018 -0.0344062 0.0391251 -0.0058478
35 2 46.3269997 50.2883988 51.1533012 -0.0023288 0.0211039 -0.0294949
36 2 41.9169998 48.5446015 39.9345016 0.0068148 0.0079186 0.0159422
37 2 55.1257019 41.8311997 47.8019982 0.0081316 -0.0056876 0.0095123
38 2 43.6815987 47.846901 44.1711006 -0.034125 -0.0181984 0.008058
39 2 51.3025017 51.2825012 45.6030007 0.0108929 -0.0064381 -0.0351211
40 2 48.1745987 43.2686005 48.4651985 -0.0120187 0.0079696 0.0061293
41 2 52.0709991 50.5625992 39.8754006 0.010065 -0.0065161 -0.0105941
42 2 44.3792992 50.6567993 44.9138986 0.0144401 0.0489112 6.52949e-04
43 2 48.5758019 48.5527992 42.3937988 0.0064311 -0.0100365 -0.0233551
44 2 43.5471993 44.8125 43.4830017 0.0188638 -0.0258349 -0.003568
45 2 48.1780014 62.2910996 55.8918992 -1.7246701e-05 -4.7305398e-05 -7.3131499e-05
46 2 50.0942001 45.1371002 51.9510002 5.2544298e-04 -0.0455549 0.0309081
47 2 43.2780991 46.4831009 49.706501 0.0116079 0.0014341 -0.0114889
48 2 47.6910019 51.2966995 46.7750016 0.0278502 -0.0388752 0.0051375
49 2 48.7027016 40.3834 45.5828018 -0.0138385 -0.0134206 0.0018067
50 2 47.284401 57.0061989 45.6540985 -0.0078069 0.0114242 0.0329176
51 2 50.0625 48.6246987 47.0878983 -0.0387673 0.0140751 0.0440162
52 2 47.5222016 47.6591988 52.581501 0.0206469 -0.0038286 -0.0175601
53 2 50.2738991 53.2048988 50.8890992 -0.0074491 0.0034841 -0.0187064
54 2 47.9571992 50.9972992 39.8824006 -0.0271193 -0.115403 0.0534205
55 2 52.6442986 53.7935982 48.2262993 -0.021002 -0.0104821 -0.0151041
56 2 49.6309014 43.4014015 45.6204987 0.012012 0.0431425 -0.0171302
57 2 49.2528 55.3605995 48.0766983 0.0141581 0.0133835 -0.0215213
58 2 56.3261986 46.1217995 44.5485993 -0.0116216 -0.006027 0.0187597
59 2 47.8899994 53.2415009 42.4707985 0.0166564 -0.0172133 0.0052267
60 2 49.8209992 56.1277008 44.013401 0.051133 0.133419 -0.0945747
61 2 54.2601013 51.9639016 44.1963005 -0.0127955 0.0133578 -0.0072509
62 2 44.7472 48.1119995 47.1931992 -0.0323474 -0.0200602 -0.0634325
63 2 48.1094017 45.1711998 42.4776993 -0.0032618 0.0105916 0.017602
64 2 47.0853996 45.9770012 46.3431015 0.00941 -0.0039344 -0.0041924
