ITEM: TIMESTEP
130000
ITEM: NUMBER OF ATOMS
64
ITEM: BOX BOUNDS pp pp pp
0.0 100.0
0.0 100.0
0.0 100.0
ITEM: ATOMS id type x y z fx fy fz
1 1 53.3723984 51.8597984 54.0609016 -0.0214043 -0.0082333 -0.0088379
2 1 45.4656983 51.7775994 43.9174996 0.0205754 0.0020585 -0.0159947
3 1 51.5144997 52.1571007 50.5980988 0.0167799 0.0445265 -0.0078532
4 1 49.8419992 46.7052994 46.8956986 0.0302398 -0.074042 0.0143414
5 1 43.5702019 54.6091004 50.0792007 0.0233584 -0.0084688 0.0158448
6 1 45.1645012 46.3986015 42.9189988 0.0115173 0.0089793 0.0251861
7 1 51.3591995 56.2285004 49.8442994 -0.009402 -0.0203319 0.0265537
8 1 58.6825981 51.2146988 43.4155007 -0.0085423 -0.0012464 0.0054409
9 1 49.348999 48.7167015 52.0714989 0.0654473 0.0029299 0.0119072
10 1 45.3482018 55.9760018 44.5057984 0.0230959 -0.0147741 0.020662
11 1 48.3567009 51.4062004 48.5041008 0.0622303 0.0627842 -0.0209479
12 1 47.7396012 56.8678018 48.3658981 0.0549623 0.0635487 -0.115198
13 1 48.1558991 43.8568994 43.0293999 0.0339219 0.0957878 -0.0757165
14 1 46.2398987 49.2476998 50.5938988 -0.0254484 0.0947571 -0.0435425
15 1 41.9305992 52.3591004 45.0424004 4.2016101e-04 0.0502347 0.100374
16 1 50.9085008 52.6329994 44.8731004 -9.0267496e-04 -0.0515618 0.0384682
17 1 51.7352982 43.463501 48.2355003 0.0338449 -0.0235283 -0.0543292
18 1 46.3788986 52.3348007 52.4291001 0.0100624 0.0518545 -0.0031103
19 1 45.9695016 46.4077988 47.8064995 0.0471872 -0.142428 0.0046879
20 1 50.0946007 56.1274986 45.0545998 -0.0018188 -0.0233549 5.5797897e-04
21 1 46.0332985 57.5214005 51.669899 0.0073212 -0.0076602 0.0051838
22 1 55.7126999 47.2611008 46.4193993 -8.4294596e-04 -0.0540461 -0.0528328
23 1 52.0646019 48.3442001 44.4121018 0.0464039 8.5935698e-04 -0.0205835
24 1 45.0035019 52.2335014 47.5553017 -0.0692584 -0.0306682 0.0300494
25 1 41.7013016 49.6259995 49.1385002 0.0315726 0.0127507 -0.01599
26 1 48.2543984 42.9062996 47.8638 -0.0521519 0.0205929 -0.0173801
27 1 54.8642998 51.2136002 46.1380997 0.0141002 0.0162772 0.0133852
28 1 42.4238014 48.4845009 45.1433983 0.0215824 0.0161949 0.0117196
29 1 52.0679016 45.8544998 50.7776985 -0.0122444 0.0561049 0.033688
30 1 47.2094002 48.9056016 45.6493988 -0.0060362 0.0489226 -0.0296976
31 1 47.8107987 39.4790001 50.0014 0.005724 0.0051119 -0.0048255
32 1 52.1018982 49.3508988 48.5393982 -0.0716124 -0.0383166 -0.0896008
33 2 48.0181999 58.2686997 45.0895996 -0.0289653 0.0057605 0.0141712
34 2 54.9953996 49.2453003 48.3625984 0.0327335 0.0346354 0.0813305
35 2 48.7542992 50.1314011 42.6445999 -0.0023612 2.6623101e-04 0.0294015
36 2 51.0285988 44.0805016 44.7803993 -0.0198469 0.0127944 0.0215886
37 2 57.0695 54.1752014 48.744999 -0.0075562 -0.0062291 -0.001222
38 2 51.0919991 57.7969017 47.3016014 -0.0057155 0.0225988 0.0055064
39 2 48.6968003 48.5373993 48.925499 0.0010153 -0.0399408 0.0220096
40 2 41.5503006 50.7579003 42.7056999 -0.0015094 -0.0572304 -0.0592089
41 2 43.9981004 51.2426987 50.5572014 -0.0095402 0.0352547 -0.0159645
42 2 52.4943009 52.3839989 47.7240982 0.0096556 -0.015726 -0.0207561
43 2 47.7490006 41.8003006 44.8911018 -0.0145969 -0.0843889 0.0944213
44 2 41.5625 52.8818016 48.2686997 0.0367012 -0.003659 -5.5771404e-04
45 2 53.4002991 51.3027992 43.5968018 -0.0273682 -0.0101388 -0.0338406
46 2 47.3529015 45.6259003 45.4121018 0.0295139 -0.0129695 -0.0593642
47 2 57.6898003 43.493599 45.9529992 -0.0038227 0.0056388 9.6573496e-04
48 2 52.9219018 46.3515015 47.7910004 -0.008575 0.0162553 -0.0103823
49 2 49.971901 54.2478981 47.9091988 0.0091989 0.0182604 0.0126219
50 2 48.9567986 45.2504997 50.0979004 0.0068683 0.0109578 -0.0264625
51 2 50.1367989 49.6958008 46.1558991 -0.0253282 0.0552899 0.0281317
52 2 47.408001 53.6015015 46.3941994 -0.0160625 0.0087169 -0.0422924
53 2 49.3540993 50.5116997 55.9836998 -0.0022442 -0.0070908 0.0049784
54 2 51.7616997 37.5129013 49.2775002 -0.0040866 0.0029483 4.6399398e-04
55 2 44.6832009 48.8851014 47.9233018 -0.0640738 0.141258 -0.0120356
56 2 50.1311989 51.7683983 53.1320992 -0.0237067 -0.0123493 0.0250861
57 2 54.8576012 51.9250984 51.3167 -0.0176607 -0.0043809 -0.0166887
58 2 53.3292999 55.087101 45.1876984 -0.0247728 -0.0157514 0.0072036
59 2 45.3470001 46.6134987 50.5733986 -0.0611432 -0.128916 0.0884008
60 2 39.2989006 50.7560997 47.5152016 -0.0053333 -0.0092007 -0.0145828
61 2 52.3484001 48.8810998 51.4017983 0.0115693 0.0184105 0.0502827
62 2 45.0471001 55.2723999 53.6342011 0.0045898 -0.0142821 -0.0181892
63 2 49.3818016 58.0363998 51.8620988 -0.0103502 -0.0151484 -0.0179265
64 2 47.0630989 54.8876992 50.2433014 -0.0379089 -0.107259 0.0812997
