ITEM: TIMESTEP
110000
ITEM: NUMBER OF ATOMS
64
ITEM: BOX BOUNDS pp pp pp
0.0 100.0
0.0 100.0
0.0 100.0
ITEM: ATOMS id type x y z fx fy fz
1 1 42.2728996 52.9693986 60.3676987 1.2694301e-04 -5.9634104e-05 -1.6987601e-04
2 1 42.3261986 47.3443985 46.1829987 -0.0154464 0.0299295 0.0147198
3 1 48.7335015 51.5141983 51.3810005 0.0346785 -0.029557 -0.0902004
4 1 53.3216019 52.1207008 43.2304001 -0.0176781 -0.0205547 0.0241065
5 1 41.932499 43.3762016 50.0413017 0.01098 0.002071 -0.0069557
6 1 48.2840996 53.7798996 42.7541008 0.0066602 0.0306621 0.0340255
7 1 45.929001 53.3875008 49.5582009 -0.0540296 0.0724256 0.0343953
8 1 51.7809983 55.6478997 47.4530983 0.0933762 0.0300305 0.0209465
9 1 51.2983017 48.4071007 51.014801 0.016498 0.0138617 -0.0334473
10 1 44.3979988 50.8438988 44.0075989 0.0302699 -0.128015 -0.0404587
11 1 48.6343994 47.3398018 53.1086006 -0.0362012 -0.0534272 0.0020387
12 1 47.4053993 50.4361992 54.4650002 -0.089924 -0.0103131 0.0657462
13 1 47.9771004 57.2863999 45.2504006 0.0093462 -0.0297375 0.0069876
14 1 48.0820999 48.6333008 47.2556 0.0277131 -0.0038843 -0.0186311
15 1 45.4592018 45.6464997 46.9950982 -0.0634956 0.0195804 0.0427139
16 1 44.1497994 54.1622009 44.6590004 0.0499071 0.143588 0.026627
17 1 52.362999 47.3246994 45.0898018 -9.9176006e-05 0.0966015 -0.0475613
18 1 51.9429016 52.8394012 53.2075996 -0.0278206 -0.0103152 -0.0221607
19 1 54.7946015 47.1599007 49.0079002 -0.033514 0.0083138 1.89474e-04
20 1 43.4496994 51.2274017 47.4682007 2.5018499e-04 0.0093284 0.0316505
21 1 45.0928993 41.1106987 47.879902 -2.8239999e-04 0.0163659 0.0021012
22 1 52.8031998 58.1887016 52.1339989 -0.0031784 -0.022474 -0.0149221
23 1 49.5918999 55.3223 50.9770012 -0.0530252 -0.0029031 0.0355798
24 1 48.8176995 46.5 43.2490997 0.0025262 0.0150697 0.0248317
25 1 45.6710015 49.3378983 50.3456001 -0.184706 0.0928397 0.0105848
26 1 48.6492005 44.5457993 49.1692009 -0.0019221 0.0320673 7.2158699e-04
27 1 50.0956993 52.171299 46.3764 -0.0361848 -0.0015655 -0.0218189
28 1 50.8246994 43.6629982 44.7533989 -0.0652288 -0.0391571 0.0774013
29 1 52.9880982 51.7145005 48.5540009 0.0153312 0.0105788 0.0264663
30 1 47.8834 50.1506004 42.3861008 -0.0033985 -0.02461 0.0207601
31 1 52.213501 44.4444008 51.3451004 -0.0102945 0.0271438 -0.0041805
32 1 53.4220009 49.418499 54.2251015 -0.0699845 -0.109185 0.0058626
33 2 41.6759987 52.5968018 44.8824006 -0.022216 -0.0383895 0.0119128
34 2 52.4654007 54.8959008 50.8045006 0.0544619 -0.0087595 -0.0155694
35 2 45.4603997 51.9446984 52.3638001 0.0157384 -0.0148072 -0.0171482
36 2 55.3683014 49.2290993 43.8731004 -0.0212128 0.0039658 0.0027961
37 2 48.2193985 53.2338982 53.7522011 0.0219235 0.0469453 0.0079986
38 2 46.4328003 47.8714982 44.8955994 -0.0212262 8.4438296e-04 -0.0300609
39 2 50.6734009 49.5854988 43.7419014 -0.0027201 0.0062399 0.0110264
40 2 43.6825981 45.3722 44.2687988 0.0168334 -0.002847 0.0031184
41 2 46.0652008 45.7338982 51.3529015 0.0139982 0.0131487 -0.012744
42 2 47.6067009 51.4348984 48.3709984 0.0695222 -0.0781972 -0.005978
43 2 51.0578003 49.3841019 47.9463998 -0.0081428 -0.0074166 -0.0042674
44 2 52.4117012 54.4516983 41.4225006 -0.0082897 0.0040239 0.0010987
45 2 46.8442994 56.4861985 41.6025009 0.0059532 -0.0091624 0.0156214
46 2 52.679699 45.1078987 43.1489983 0.0580783 0.0233636 -0.0732387
47 2 51.1394005 54.7271004 44.6688996 -0.050717 -0.0123519 -0.0407616
48 2 48.6968994 57.6018982 49.0383987 -0.0030322 0.0444433 0.004019
49 2 46.8484994 52.7719994 45.6342011 -0.0014576 0.0036705 -0.0288133
50 2 48.1478005 48.2103996 50.2033005 0.211627 -0.0814694 0.0121702
51 2 53.539299 47.7649002 41.2560005 -0.0052992 0.0061343 0.0111999
52 2 42.3191986 46.464901 49.5877991 0.013555 0.0057247 -0.0160173
53 2 51.5578003 46.6137009 53.9117012 0.0091419 0.013094 -0.0215993
54 2 52.1617012 45.7818985 47.4757996 -0.01563 -0.0485846 0.0862327
55 2 48.0353012 44.8959008 46.0480995 0.101281 -0.0112245 -0.0371344
56 2 53.7668991 50.2060013 51.2787018 -0.0024223 0.013112 -0.0150441
57 2 55.8837014 57.6295014 49.534401 -0.0099142 -0.0020707 0.0042591
58 2 49.1596985 54.7694016 48.0750008 -0.10069 -0.10645 -0.0327487
59 2 54.7350998 51.9300996 54.1188011 0.0536461 0.0884514 -0.0036184
60 2 52.2492981 43.4928017 62.1521988 0.0 0.0 0.0
61 2 53.733799 53.6341019 45.9678002 0.0140813 -0.0221427 0.0249757
62 2 45.8254013 47.1067009 54.5126 0.0074766 0.0140964 -0.0058197
63 2 42.6058007 53.6762009 49.9525986 0.0198714 -0.0130217 -0.0104519
64 2 50.2411003 49.9221992 53.8246994 0.0545305 0.0049376 -0.0333636
