ITEM: TIMESTEP
150000
ITEM: NUMBER OF ATOMS
64
ITEM: BOX BOUNDS pp pp pp
0.0 100.0
0.0 100.0
0.0 100.0
ITEM: ATOMS id type x y z fx fy fz
1 1 56.1525993 53.1453018 47.1931 -0.0079237 0.0139837 0.0073634
2 1 49.6949997 48.4285012 40.5647011 0.0360141 -0.0037972 0.0107017
3 1 56.5691986 49.7873993 48.8997002 -0.009463 -0.0169493 -0.0205879
4 1 46.0472984 50.8600006 45.977501 -0.0298667 -0.0303084 -0.0313465
5 1 51.3130989 52.6473007 42.8953018 -0.0437858 -0.0169836 0.0047346
6 1 43.2280007 54.0834999 47.4104004 0.0164298 -0.0220586 9.76789e-04
7 1 56.2158013 47.5582009 44.8364983 -0.0108886 0.0094314 0.016017
8 1 46.7635002 46.7550011 45.8426018 -0.0326662 -0.0334282 -0.0340715
9 1 45.6433983 51.6548996 52.5140991 0.0238869 -0.0122485 -0.0111928
10 1 55.2938995 45.1151009 47.7582016 -0.0260573 0.0151345 -0.0196416
11 1 51.1682015 46.7655983 46.6857987 0.0410278 -0.0153044 0.0130273
12 1 47.4390984 50.2444992 38.3964005 -0.0221006 0.0137939 0.0039658
13 1 43.4510002 47.6422005 48.0396004 0.0478786 0.0185418 -0.0041098
14 1 51.4385987 55.7668 52.3326988 1.9002502e-04 -0.0147872 -0.0262141
15 1 53.8446008 50.8619996 45.2537003 -0.0103112 -0.0368327 0.0155843
16 1 49.987999 45.8401986 49.9053994 -0.0197421 0.0024639 0.030795
17 1 46.2209015 48.5875016 41.9360008 -0.0165405 0.0260838 0.0298284
18 1 51.2383995 51.2807007 50.4407997 -0.0241346 0.0541359 0.0674389
19 1 43.0172005 51.3804016 50.1528015 -0.0412042 0.0450458 -0.0301283
20 1 45.2318001 52.4382019 62.8264008 0.0029484 0.0017807 -0.0051267
21 1 47.9597016 53.8049011 45.2528 0.0368394 0.0130879 -0.0135662
22 1 51.8344002 50.4025993 54.6040001 -0.0102497 -0.0076456 -0.0289876
23 1 44.7215004 54.1212997 55.0700989 0.0044588 0.0146576 0.0083063
24 1 48.4948006 49.0685997 47.8958016 -0.0579256 0.0261461 0.0793747
25 1 46.7229004 53.5765991 49.2666016 0.0472374 0.0097989 -0.0069289
26 1 41.2700005 49.6119995 44.1772003 0.0315248 0.0023509 0.0194553
27 1 53.8210984 48.6669998 51.1629982 0.0206686 0.0190912 0.0033036
28 1 52.6515007 47.2342987 43.4355011 0.0364363 -0.0020445 -0.0501807
29 1 43.9300004 48.8025017 54.4640007 0.0081706 0.018395 -0.0209756
30 1 45.1492004 52.4292984 42.6547013 0.0058556 -0.0060648 -0.0087627
31 1 49.4171982 48.7681008 44.2533989 -0.0233962 0.0405715 -0.0275477
32 1 47.3196983 47.9471016 51.6814003 -0.0163959 0.0114747 -0.0161138
33 2 51.6004982 55.1562996 46.885399 0.0359908 0.0272961 -0.0509389
34 2 52.1861 43.8889008 47.1174011 0.0121807 0.0077744 0.0056752
35 2 51.8829994 44.0084991 42.2933998 0.0019202 0.0180894 0.0052355
36 2 50.0363998 51.7001992 39.9740982 -0.0104808 -0.0159089 0.0150605
37 2 57.2597008 50.4788018 45.9286996 -0.0200439 -0.009511 -0.0066817
38 2 52.7797013 48.2270012 40.3120003 0.0038234 -0.0027059 0.0149842
39 2 45.7559014 50.7916985 48.9912988 0.0216792 -0.0443601 0.012698
40 2 53.3181992 54.0172997 49.7122002 -0.0065202 -0.0238676 0.0034042
41 2 49.9580994 53.6097985 48.8282013 -0.0553135 -0.0416096 0.0441692
42 2 46.7661019 46.4841004 48.8809014 0.0062928 0.0192349 0.0169613
43 2 48.5325012 54.4098015 41.8246002 0.0027722 -0.0155639 0.0166612
44 2 52.6343994 57.1841011 49.5112 -0.0086196 0.0037836 0.0084137
45 2 43.8406982 51.0835991 40.0065002 0.0171729 -0.0051195 0.0110616
46 2 47.6730004 54.0508995 52.4146996 -0.0051789 -0.0025617 -0.0092263
47 2 54.3437996 44.8367005 44.4819985 0.0055153 0.0119275 0.0264404
48 2 44.2303009 48.3563004 45.0682983 0.0034227 0.0105155 -0.0154026
49 2 53.0587006 46.2550011 49.5917015 -0.0231702 -0.0232485 -0.0182378
50 2 44.1803017 48.7755013 50.9956018 0.0231837 -0.0293442 0.0249394
51 2 48.0551987 51.3236008 43.1097984 -0.0039126 -0.007199 3.5377999e-04
52 2 49.8148003 51.2480011 45.9416008 -0.0037228 0.0260266 0.0075441
53 2 48.4487992 50.7336006 52.240799 0.0516621 -6.3279801e-04 -0.0130158
54 2 43.1021996 50.7751999 46.9528008 -0.0065796 0.0105383 0.0038491
55 2 41.1403008 49.2495003 49.104599 -0.0290658 -0.0035396 0.0067634
56 2 51.0592003 47.9529992 52.0410004 -0.0408368 0.012384 -5.0866399e-04
57 2 47.3614006 53.7075997 59.3684998 -0.004427 -0.0029487 4.5908299e-04
58 2 47.1706009 46.8264008 39.5309983 0.0040098 0.0136703 -0.0023126
59 2 44.1506004 54.5159989 50.5060997 -0.0188533 -0.019495 0.011502
60 2 42.9001008 51.9222984 53.8350983 -0.0042289 -0.0153458 -0.0089798
61 2 46.4930992 51.5573998 55.5817986 -0.0065885 -0.0038145 -0.0142789
62 2 51.3056984 49.4494019 48.2380982 0.0868572 -0.0432117 -0.0338326
63 2 55.5931015 46.5910988 41.9086 -0.0145673 0.0061739 0.0033285
64 2 53.9914018 48.0906982 47.0969009 0.0287113 0.0050575 -0.0214794
