ITEM: TIMESTEP
108000
ITEM: NUMBER OF ATOMS
64
ITEM: BOX BOUNDS pp pp pp
0.0 100.0
0.0 100.0
0.0 100.0
ITEM: ATOMS id type x y z fx fy fz
1 1 41.1487999 50.551899 60.4042015 9.4725199e-05 6.36833e-06 -7.9303204e-05
2 1 40.4420014 47.5065995 44.6394005 0.0253702 0.003986 0.0049116
3 1 49.3484993 52.1299019 51.3529015 0.0926256 -0.108828 0.0799137
4 1 51.6902008 51.9496002 43.474701 -0.0161785 -0.007321 0.033903
5 1 44.5154991 42.7304001 47.9541016 -0.0102462 0.0258724 0.0018132
6 1 47.3130989 54.9429016 41.8181992 -0.0059179 0.0093028 -0.0134578
7 1 45.7410012 52.6943016 51.1180992 -0.0229127 -0.0344315 0.011963
8 1 49.2535019 55.4112015 47.2005997 0.0668474 0.016561 0.0658834
9 1 50.203701 48.3321991 51.0621986 0.0462684 -0.0188115 -0.0645116
10 1 43.9546014 49.0775986 42.7197991 0.0225589 9.0683498e-04 0.0243924
11 1 48.0634003 47.1464996 53.9645996 0.0046725 7.1927199e-05 -0.0263956
12 1 47.769001 50.9968988 54.8618012 -0.0057445 -8.4713402e-04 -0.0255228
13 1 47.6436005 57.6974983 45.0988007 -0.0097044 0.0303618 -0.0750668
14 1 49.2132988 48.1669006 47.6915016 -0.0114968 0.0375063 -0.0383629
15 1 46.1843987 46.2230988 46.9934006 0.0066467 -0.0592849 0.0103124
16 1 45.4732018 53.8518982 47.1952019 -0.0209042 -0.154181 -0.0043148
17 1 51.7981987 47.4682999 45.0924988 0.0372383 0.0071653 -0.0079031
18 1 52.6627999 52.9940988 53.2004013 -0.0092334 -0.0027948 0.0099254
19 1 54.3476982 48.4042015 48.6360016 0.0430078 0.0727984 -0.0084205
20 1 45.5381012 49.7444 46.6441994 0.0201334 0.0394251 -0.0248935
21 1 48.2489014 42.7271004 47.3473015 -7.7414799e-04 0.0076589 -0.0272982
22 1 50.931099 56.9361992 51.5009995 0.0380464 0.0393672 -0.0495284
23 1 46.9800988 56.2234993 51.0112991 0.0182799 0.0071341 -0.0122903
24 1 48.7937012 47.1867981 42.2757988 -0.0318619 -0.0288687 0.0104697
25 1 44.9670982 48.8737984 50.3728981 0.0251364 -0.0422184 0.0030667
26 1 50.2061997 44.467701 49.8128014 -0.0516689 0.0546319 0.0809878
27 1 48.9113008 51.992199 46.6481018 -0.0117143 -0.0667256 -0.0046875
28 1 52.4179001 43.4508019 47.3474007 0.0578096 -0.0094093 -0.0554408
29 1 52.7397003 52.8125 49.4994011 0.0054708 0.0561831 -0.0477576
30 1 48.0223999 51.1329002 42.490799 -2.2416599e-05 -0.011837 0.0399842
31 1 53.7145005 45.3555985 50.7888985 -0.0068972 6.0611401e-04 0.016102
32 1 52.9295998 48.084301 53.6133003 -0.0087674 0.0091407 -0.0132951
33 2 42.7355995 50.1474991 45.4230995 -0.0062272 -0.0064609 -0.0018484
34 2 54.6380005 55.0721016 47.4416008 -0.012564 -0.0129252 0.007314
35 2 47.554699 49.4617996 51.844101 -0.0239585 0.0159569 0.035433
36 2 54.5662995 50.595501 46.3050995 -0.0185019 -0.0019829 0.0069689
37 2 49.4855995 54.9127998 52.9257012 -0.0458801 -0.0731374 0.0263454
38 2 46.6063996 47.5425987 44.3484001 -0.0135208 0.0384667 -0.0055375
39 2 49.5407982 49.4715004 45.0461998 -0.034982 0.0313537 -0.0181159
40 2 42.7995987 44.902401 45.7308007 0.01165 0.0083894 0.0091742
41 2 47.1693001 44.1299019 51.892601 0.0104615 0.012657 -0.0020456
42 2 47.4152985 50.6511994 48.9435006 7.24264e-04 -0.0138752 0.0014649
43 2 51.4999008 50.0853996 48.3959999 -0.0219388 0.0049272 -0.0329812
44 2 50.4681015 56.8091011 43.2547989 -0.0183055 -0.0038708 0.0099517
45 2 51.9347 60.3457985 42.7911988 -0.002554 -0.0046246 0.0011186
46 2 54.2433014 44.4287987 43.6845017 -0.0087623 0.0050933 0.0093182
47 2 48.4033013 54.2555008 44.4916001 0.0067204 -0.0191048 0.0299851
48 2 46.4067001 56.4586983 47.5334015 0.0299916 0.116985 0.0538522
49 2 45.5909996 52.1573982 44.4952011 0.0164234 -0.0134855 0.0042689
50 2 47.967701 46.5512009 49.7925987 -0.0177441 6.95395e-04 0.0261337
51 2 50.9860992 49.0894012 42.345501 0.0562722 0.0398465 -0.0185099
52 2 44.9016992 45.7070008 49.6366005 -0.0276779 -0.0100785 0.0237762
53 2 50.8217011 45.8106003 52.6118012 0.0041919 -0.0026132 4.39848e-04
54 2 51.9213982 46.9103012 48.8115006 -0.0709714 -0.0430768 0.0178149
55 2 50.2075996 45.4505997 46.6736985 -0.0541631 -0.0355184 -0.0039948
56 2 52.6274987 50.4996987 51.2134018 0.0037676 -0.0683793 0.0806339
57 2 55.7896004 59.3554993 52.5014992 -0.0011542 -0.0016217 -3.43306e-04
58 2 48.0379982 53.7613983 49.5144005 -0.0453642 0.0901588 -0.12769
59 2 55.8814012 53.9800988 52.4662018 -0.017783 -0.0051698 -0.0017391
60 2 51.3605995 45.5080986 60.7243004 -3.2230899e-05 7.7037997e-05 -2.6626501e-04
61 2 51.8829994 52.846901 46.6413994 -0.0143309 0.0110624 -0.0413062
62 2 44.885601 47.1323013 53.2374001 0.0180686 0.006739 -0.0174401
63 2 44.1007996 51.3558006 48.9243012 -0.0080753 0.023082 -0.0337258
64 2 50.2804985 49.8925018 53.4726982 0.0200578 0.0373078 0.0671484
