ITEM: TIMESTEP
124000
ITEM: NUMBER OF ATOMS
64
ITEM: BOX BOUNDS pp pp pp
0.0 100.0
0.0 100.0
0.0 100.0
ITEM: ATOMS id type x y z fx fy fz
1 1 55.0195007 62.4520989 52.9529 -1.75314e-04 -4.9583302e-04 -2.7434101e-04
2 1 39.6221009 51.1635017 44.8437996 0.0278418 -0.0060399 0.0107483
3 1 51.6169014 52.652401 50.9431992 0.0156271 0.0174779 7.0509701e-04
4 1 50.2715988 47.4426003 42.5281983 0.0013301 0.0451861 -0.0436082
5 1 38.8210984 48.3544998 49.7612992 0.011912 -0.003444 -0.0079561
6 1 44.6046982 48.3246002 43.875 0.0136887 -5.7644201e-04 0.0315905
7 1 51.0064011 56.7682991 49.4295998 0.004893 -0.0234502 -0.0041135
8 1 54.7621002 54.7028008 52.3027001 -0.0150817 -0.0059166 -0.012167
9 1 47.3180008 48.0061989 53.9515 0.0105164 -0.0176611 -0.0228496
10 1 46.3115997 53.7141991 44.1214981 -0.0343698 -0.0110793 -0.0252651
11 1 48.6852989 51.453701 47.860901 -6.1993303e-04 -0.0804805 -8.9491902e-04
12 1 47.1819 55.6086998 50.4616013 0.0120288 -0.0353536 -4.1616697e-04
13 1 52.4000015 50.9319 40.5245018 -0.0189044 -0.0047538 0.0050881
14 1 46.717701 49.158001 50.3238983 -0.196855 0.151022 -0.0772825
15 1 43.7089997 45.4776001 46.6324997 -0.0025153 0.0179964 -0.11681
16 1 52.8405992 53.1367989 46.3576012 -0.0156233 0.0047586 -0.0649966
17 1 51.4375992 45.7450981 45.3647003 -0.0032957 -0.0059603 0.0328797
18 1 48.4155998 51.391201 52.4950981 0.009883 0.0410545 0.0046847
19 1 48.6894989 47.4599991 47.5564995 0.0098367 0.0166157 -0.0303556
20 1 49.1330986 55.1137009 46.0514984 0.0170726 -0.0165715 0.0309665
21 1 45.1012993 53.1088982 53.1380005 0.080755 0.0626884 0.0090839
22 1 57.2206993 46.7097016 45.5826988 0.0057732 0.0190588 0.0043712
23 1 54.2005997 50.3913002 43.6996994 -0.0082659 -0.0086992 -0.0101585
24 1 44.7658997 50.8255997 46.8115006 -0.0421802 -0.0672927 0.005553
25 1 42.7314987 48.2375984 48.9197006 0.0297323 0.0040346 0.04319
26 1 46.3732987 44.6813011 48.6908989 0.0700716 -0.0030556 0.0493763
27 1 53.4033013 48.8036003 46.7909012 0.0184405 -0.0212529 0.0675239
28 1 46.9556008 44.4113007 44.6526985 -0.0025883 -0.0102634 0.0181238
29 1 55.0581017 50.8967018 51.3704987 -0.0179999 -0.0163325 -0.005858
30 1 48.1744995 50.4440995 44.0471001 0.012763 -0.0214098 0.023664
31 1 48.8042984 44.2014999 53.1780014 -0.012177 0.0180897 -0.0211785
32 1 51.2560997 48.9547998 50.3189011 -0.0197377 -0.0236886 -0.0318877
33 2 42.3089981 53.5634003 46.5853997 0.010825 -0.0187675 -0.0023568
34 2 55.3260994 51.3153 46.4984017 -0.0023186 -0.009551 0.0036385
35 2 53.2653999 59.7783013 46.3527985 -0.0015406 -0.0029116 0.0020395
36 2 53.6189003 46.3622017 41.9418984 -0.0147815 0.0099732 0.0163678
37 2 53.4166985 54.5653 48.9006004 -0.0093791 0.0078902 0.048097
38 2 46.4477005 53.1301003 47.0629997 0.0184456 0.105628 0.0026778
39 2 50.6577988 49.0474014 45.6474991 -0.0362193 -0.0013233 -0.0217037
40 2 41.3149986 45.5169983 48.1907997 -0.0734921 0.0106609 0.0489858
41 2 43.0565987 53.4569016 51.0228996 -0.0245002 0.0021561 -0.0301047
42 2 51.6292 51.1767006 48.1851997 0.0220486 -0.0352683 0.0233355
43 2 50.0583 44.6463013 47.8354988 -0.0233646 0.0022791 0.0148531
44 2 41.8674012 48.9477998 46.1810989 0.0086047 0.0147246 -0.0427928
45 2 53.6035004 53.283699 38.9453012 0.0039874 0.0062922 9.0388603e-05
46 2 47.8676988 47.2387009 44.4241982 -0.0024209 0.0416631 0.0198835
47 2 54.4303017 45.5718003 45.7162018 -0.0067639 0.0071832 0.0051672
48 2 55.8634988 48.2671013 49.1959 -0.0167198 0.0125984 -0.0096613
49 2 49.6521988 53.9780998 48.9796982 0.0037425 0.0448543 0.0135718
50 2 48.4850998 47.1268005 50.6436005 0.154425 -0.17879 0.0385133
51 2 51.3783989 52.4878006 43.2029991 0.0106137 -0.0163934 0.015581
52 2 43.5135994 51.4169998 44.0325012 0.0058298 -0.0034932 0.0038577
53 2 44.9323006 49.1327019 55.5582009 0.0103712 -0.0094491 0.0175905
54 2 51.2863007 42.4686013 50.1874008 -0.0047339 0.0047329 0.0033986
55 2 45.6006012 47.7723007 47.1375008 0.008596 0.0186862 0.0093177
56 2 51.1422997 50.1501999 53.0746994 0.0156821 0.0102445 0.0138473
57 2 53.0621986 52.8270989 54.2929993 -3.5314801e-04 -0.0038357 -0.0240097
58 2 55.0946999 53.1725006 43.0116005 -0.0055541 0.018164 -3.97509e-04
59 2 45.8176003 45.1390991 51.8434982 0.0179499 0.0112087 -0.0030605
60 2 44.7888985 42.6591988 46.1453018 0.0115552 -7.6236696e-04 0.0069483
61 2 54.4766999 48.2711983 54.0598984 -0.0042628 0.011512 -0.0118843
62 2 43.3574982 50.8521004 53.4600983 -0.0569 -0.0489916 -0.0171181
63 2 47.8007012 56.0887985 53.8950006 -0.0055944 -0.0111342 -0.0172856
64 2 46.1450996 52.4019013 50.1927986 0.024447 -0.0139851 0.0111361
