ITEM: TIMESTEP
134000
ITEM: NUMBER OF ATOMS
64
ITEM: BOX BOUNDS pp pp pp
0.0 100.0
0.0 100.0
0.0 100.0
ITEM: ATOMS id type x y z fx fy fz
1 1 52.3410988 54.0586014 53.0704994 -0.0076972 0.0087429 -0.0116462
2 1 48.6959992 47.6982003 43.5695 -0.119612 0.023214 -0.134809
3 1 55.0896988 55.8179016 49.7611008 -0.0141954 0.0183754 0.0153706
4 1 47.834301 46.0381012 46.5904999 -0.0160479 -0.0146175 0.0589993
5 1 46.9768982 57.3605003 52.6771012 0.0098612 -0.008456 -0.0159254
6 1 40.8634988 43.2356987 47.5112 0.0206807 0.0014336 8.7588301e-04
7 1 50.9917984 57.0183983 49.883999 0.0348469 0.0134287 0.0049675
8 1 51.4199982 48.1030006 45.4429016 0.184809 0.0211212 0.0697152
9 1 48.2669983 48.6789017 51.5521012 0.0551797 -0.0422957 0.0192696
10 1 48.6358986 52.5830994 41.8674012 2.5025101e-04 -0.0096593 0.0248928
11 1 51.2454987 53.7117005 48.0068016 0.0247717 0.0957749 0.133667
12 1 49.9269982 57.3931999 45.6939011 -0.0146567 -0.0170132 0.0207938
13 1 46.7532997 42.4362984 46.5390015 -0.0107971 -0.0041326 -0.0174035
14 1 44.6719017 48.8689004 51.2823982 -0.0145627 0.0113491 -0.0050357
15 1 45.9398994 57.6636009 47.9487992 0.0101405 -0.0096765 0.0270123
16 1 50.4910012 51.7798004 45.3945007 -0.0787443 -0.101686 -0.126009
17 1 50.9314004 43.4149017 47.4017983 0.0335199 -0.0209213 -0.0955684
18 1 47.1571999 52.0595017 52.0833015 0.0117209 0.0468325 -0.0039087
19 1 44.5674019 45.8440018 48.7703018 0.0215561 9.7136402e-04 -0.0113628
20 1 54.0256004 55.8610002 46.3314018 -0.0252404 -0.0078764 -0.027905
21 1 48.8414002 59.9196014 48.6433983 0.014559 0.0054313 0.0123256
22 1 53.3790016 45.0862007 50.2001 -0.0227761 0.0164135 -0.004194
23 1 51.2649994 44.6848984 41.8751984 -0.0196806 0.0117767 0.010606
24 1 47.9603004 50.9836006 48.4850006 0.0069175 0.0549379 0.0314506
25 1 43.0615006 51.5626984 48.2248001 0.0163028 -0.0074528 0.0148529
26 1 44.3008995 42.1730995 49.7024002 -0.0348207 -0.0201125 -0.0078861
27 1 53.5168 51.3642006 50.7486 0.0143463 0.0154843 -0.02002
28 1 43.9884988 52.8949014 44.7840004 0.0205917 0.0047451 -0.0046098
29 1 49.5120011 44.6353989 50.2490997 -0.0158853 0.0867274 0.0912077
30 1 45.9117012 49.5483017 45.8876 -0.0395042 -0.0138873 -0.0229048
31 1 46.6609001 39.1983986 43.4382019 -0.0011106 0.0191972 0.008962
32 1 51.240799 48.6977005 49.3806992 0.0734109 0.197201 0.0851248
33 2 45.8119011 56.6189995 45.1677017 0.0077368 -0.0207883 -0.0292922
34 2 54.0368004 47.3119011 48.1002007 -0.025506 0.0130702 -0.0024994
35 2 46.7164994 50.1557007 42.6864014 0.0082535 -2.8253501e-04 0.0201482
36 2 47.7859001 45.4351006 41.5615998 0.0163232 0.0068604 0.0023183
37 2 58.9287988 54.8147011 52.9126016 -0.0060124 -0.0010266 -0.0024674
38 2 53.6626015 58.7579003 49.0391998 -0.0068095 -0.0241085 -0.0015893
39 2 46.8684998 48.0758019 48.9585992 -0.0221561 -0.0125535 -0.0231937
40 2 45.4394989 53.5758019 41.9766006 0.0111005 -0.0076198 0.0111735
41 2 44.2168007 52.1711998 51.2286987 -0.0087962 -0.0159204 -0.0158549
42 2 52.5363007 51.0349007 47.4772988 0.0038584 -0.0502667 0.0216879
43 2 46.4746018 42.9103012 43.2223015 -0.0017653 -0.0156277 0.023056
44 2 45.5323982 53.8688012 48.5275994 0.0073441 -0.0108455 -0.008413
45 2 51.2473984 50.080101 42.8796006 -0.0207003 -0.0098824 0.0089304
46 2 43.5619011 42.6865998 45.7681999 0.0121279 0.0025946 0.016266
47 2 62.0029984 46.8749008 43.9645004 0.0 0.0 0.0
48 2 50.5639 46.5777016 47.8566018 -0.0593574 -0.231199 -0.096711
49 2 54.9776002 53.0568008 48.1557999 -0.0132088 0.0183491 0.0118954
50 2 46.9589996 43.4280014 49.4589005 -0.009411 0.0176334 -0.0217334
51 2 48.7910996 48.9793016 46.4667015 0.0204986 0.0089172 -0.0147443
52 2 48.5807991 54.2224007 45.858799 0.0070554 0.0047149 0.0128646
53 2 54.4337006 50.8860016 54.0954018 -0.0084655 0.012 -0.0191794
54 2 46.5224991 39.6907997 48.0343018 -0.0067903 0.0124805 0.0024584
55 2 42.8347016 48.4564018 48.910801 -0.0023977 0.0034595 -0.0182659
56 2 50.3988991 51.5466004 50.2658997 -0.0034464 0.0118053 0.0080765
57 2 55.4483986 53.8228989 51.9440002 -0.0133284 -0.0324509 0.0211247
58 2 52.2849007 53.293499 43.4053993 -0.002544 0.0078246 0.0030965
59 2 44.1133003 45.3129006 51.8171997 0.0067524 0.0045354 -0.0116505
60 2 40.0213013 51.3834992 46.521801 0.0169075 6.33215e-04 0.00614
61 2 50.9532014 46.9431 51.841301 0.0011183 -0.0110785 -0.0011948
62 2 49.1916008 55.273201 53.6004982 0.0078713 -0.0081961 -0.015214
63 2 47.6973992 59.9132004 45.8030014 -0.0041631 -0.0220444 -0.0041076
64 2 48.8148003 55.0046005 49.5050011 -0.0302234 -0.0263583 -0.0040314
