ITEM: TIMESTEP
192000
ITEM: NUMBER OF ATOMS
64
ITEM: BOX BOUNDS pp pp pp
0.0 100.0
0.0 100.0
0.0 100.0
ITEM: ATOMS id type x y z fx fy fz
1 1 45.607399 40.9682008 46.3175011 -0.0080076 0.0061696 0.0077846
2 1 42.8700982 54.3572998 43.4746018 0.017706 -0.0125784 0.008246
3 1 49.8181992 49.4113999 47.2127991 0.0224866 -0.0216624 -0.0044445
4 1 46.2815018 47.5695992 44.2047997 -0.193155 0.0940896 0.0495178
5 1 51.9191018 44.1847992 45.6105995 -0.0257685 0.0101256 0.0085937
6 1 49.1617012 46.7043 39.3069992 -0.0015953 0.0208746 0.0269298
7 1 39.3204994 45.4947014 43.287899 0.0152514 -0.0051233 -0.010533
8 1 54.4430008 57.0094986 39.8081017 -0.0094436 -0.0095846 0.0072233
9 1 52.5357018 51.926899 42.4421005 -0.0383087 -0.0511824 -0.0407205
10 1 48.3306999 55.8247986 39.8311997 6.4601703e-04 -0.0375493 -0.0037111
11 1 46.0805016 51.6531983 42.9322014 -0.0274673 0.0048633 0.0221388
12 1 41.806099 47.6994019 41.2477989 0.0133073 -0.019467 0.0074028
13 1 54.7112007 51.8764 45.9384004 -0.0246396 -0.0067979 -0.0105114
14 1 47.6987992 43.679699 44.9037018 0.0393607 0.0271692 -0.0231243
15 1 44.3516007 54.5205002 39.8002014 -0.0012676 0.0062711 0.0067862
16 1 44.9616014 49.4030991 47.4019013 -0.0272333 0.0028056 0.011774
17 1 55.4967003 56.7276001 48.0495987 -0.0163481 -0.0222821 0.0050687
18 1 47.4463005 46.4168015 47.7226982 0.0059241 -0.0217741 -0.0076723
19 1 53.6227989 56.3857994 52.7116013 -0.0175676 0.0106178 -0.0013796
20 1 49.4673004 50.7775994 39.6892014 -0.158306 -0.0554284 0.0087791
21 1 54.027401 53.3198013 50.6842995 -0.010541 -0.0112667 -0.0362532
22 1 51.4396019 46.8438988 42.6170998 -0.0228696 0.0109209 0.0121236
23 1 51.3736992 55.9877014 42.2991982 0.0083398 -0.0153629 -0.0034988
24 1 49.7322006 52.9473992 45.881199 0.0730403 0.0053324 -0.0288044
25 1 52.347599 52.6769982 37.5064011 -3.9043498e-04 -0.0094586 0.0060374
26 1 49.2849999 49.9790002 43.3154984 0.0155613 -0.0275615 0.0169668
27 1 51.2765999 56.0326996 49.0237999 -0.0026951 0.0056369 -0.0105456
28 1 49.2158013 55.5932999 53.2411995 0.0120157 0.0370569 -0.0484666
29 1 53.4398995 47.8871002 45.8521996 -0.0469089 -0.0053591 0.0453356
30 1 43.8857994 44.216301 41.0561981 -0.0016799 0.0031456 0.0126871
31 1 47.7564011 57.3487015 46.2566986 -0.0748622 0.0044208 3.0099399e-04
32 1 48.3922005 59.0713997 42.0046997 0.0049769 -0.0155499 0.0097821
33 2 50.8521004 53.8833008 51.2145004 0.0164565 -0.003532 -0.0012548
34 2 47.3386994 43.0354004 48.0354004 0.0200454 1.79793e-04 7.0932403e-04
35 2 47.0304985 53.8793984 46.2570992 -0.0277299 0.0444932 -0.0026309
36 2 48.9510994 53.9065018 55.6273003 -0.0032096 -0.0279642 0.0380464
37 2 49.1314011 40.7106018 50.2719002 -9.1147099e-04 0.0036222 -0.006266
38 2 48.4609986 55.9911996 42.8765984 -0.0512536 0.116028 0.0395294
39 2 51.7728997 50.7486992 45.0960999 0.0043792 -0.0234252 0.0277777
40 2 38.9277992 49.3190994 50.2930985 3.3654699e-04 -1.44629e-05 -2.6420698e-04
41 2 47.8284989 45.927601 42.5990982 0.078755 -0.11882 -0.147986
42 2 50.4057999 56.4101982 45.7504006 0.0881468 -0.0524975 -0.017754
43 2 48.7995987 53.1222 42.7279015 0.0413635 -0.119595 0.013489
44 2 47.2352982 50.114399 45.6651993 0.0323372 0.0336262 -0.0336353
45 2 50.8120003 46.3844986 47.993 -0.0863953 0.07575 -0.0441867
46 2 45.1581001 44.4939003 46.2491989 -0.0214417 0.0290792 0.0089223
47 2 53.0140991 44.5611992 48.5405007 0.078766 -0.0617121 0.0147351
48 2 52.8303986 53.7383003 47.6665001 -9.8999702e-05 -0.008429 -0.0051462
49 2 44.2635002 52.5140991 46.104599 -0.0247067 -0.027477 -0.0182396
50 2 53.7891999 54.401001 43.2669983 0.0368318 0.0421189 0.0322662
51 2 43.4562989 45.8456002 43.6769982 0.0014283 0.0153734 -0.0073621
52 2 51.4953995 39.0556984 54.4644013 -5.0489202e-04 3.9523402e-04 -9.6175804e-04
53 2 53.1613998 49.157299 48.9159012 -0.0108181 0.0018825 -0.0236416
54 2 50.7769013 53.2104988 40.0797005 0.0573778 0.139346 0.041986
55 2 48.5531006 59.270401 51.3758011 0.0032624 -0.0089912 5.3889899e-04
56 2 48.9524002 47.1731987 45.0905991 0.133006 0.013407 0.0711482
57 2 57.0838013 52.8749008 47.8283005 -0.0150799 0.0052179 0.0011999
58 2 50.6492005 41.0489998 46.304699 -0.0049449 0.0198213 -7.7663098e-05
59 2 51.7313996 49.1610985 39.0877991 0.0667255 -0.0519132 -0.0097301
60 2 54.6531983 49.4318009 43.6425019 -2.1614199e-04 0.0374702 -0.0271379
61 2 44.3493004 42.4612007 43.8153 0.0081888 0.0061027 -0.0107417
62 2 46.846901 52.8198014 40.1542015 0.0285791 -0.0082312 -0.0088438
63 2 40.7537995 44.4874993 40.1837006 0.0090702 0.0149699 0.0194475
64 2 46.7098999 48.9049988 41.3023987 0.0226945 0.0122081 0.0122507
