ITEM: TIMESTEP
200000
ITEM: NUMBER OF ATOMS
64
ITEM: BOX BOUNDS pp pp pp
0.0 100.0
0.0 100.0
0.0 100.0
ITEM: ATOMS id type x y z fx fy fz
1 1 43.0648003 45.4808998 48.2448998 -0.0039586 -0.0085861 0.0210746
2 1 48.8036003 55.1449013 48.933899 -0.0045114 0.0128438 0.0154521
3 1 48.5947991 49.2459984 49.2137985 -0.0025733 -0.0031245 0.0055257
4 1 42.5340996 49.1949005 48.8320008 0.0156155 -0.0011711 -0.0268705
5 1 53.834301 43.5140991 45.9378014 -0.0014224 -0.0036225 0.008904
6 1 47.4299011 46.9715996 41.0331001 0.05397 -0.0061709 0.0086728
7 1 44.0007019 52.9709016 46.5765 0.0156252 -0.0263236 0.0344707
8 1 55.7117996 50.7131005 43.8167992 0.0285936 -0.0333332 -0.0142389
9 1 50.4112015 49.4113007 43.9701996 -0.0238899 0.0511315 -0.0288481
10 1 52.1708984 53.5811997 42.0331001 0.0043206 -0.0169935 0.0078041
11 1 46.966301 52.3050003 43.7708016 -0.112635 0.0172322 0.0453831
12 1 44.3684998 50.9578018 41.392601 -0.005848 0.0447885 -0.0335214
13 1 53.1030998 49.3796005 41.0377007 0.0237583 0.0491177 0.015164
14 1 42.0816002 45.230999 44.4658013 0.0089524 0.004714 0.0111172
15 1 46.1626015 55.8860016 45.5700989 0.0172616 -0.0018567 0.0118892
16 1 45.4590988 51.5245018 50.6885987 0.0380095 0.0040364 -0.027128
17 1 52.7994004 52.1021004 45.5752983 -0.0384272 0.0582852 -0.0669262
18 1 47.5956002 44.9822006 47.4799996 -0.0031803 0.032215 -0.0259029
19 1 55.5242996 55.9127008 46.0681 -0.0115121 -0.0048376 0.0263271
20 1 48.7336998 50.5820008 40.3088989 0.0135272 0.003169 0.0226583
21 1 56.0050011 49.3731003 47.5621987 -0.0229371 -0.0214195 0.0071437
22 1 45.8082009 43.9079018 43.6753006 0.005125 0.0317719 0.0181652
23 1 49.9743004 55.2839012 45.2032013 0.0718982 -0.139106 -0.027352
24 1 49.3928986 52.1869011 46.9059982 -0.0062211 -0.0626119 0.0088677
25 1 49.4238014 43.6884995 42.3404007 -2.2810099e-04 0.026135 0.0094631
26 1 47.235199 48.6666985 45.7071991 -0.0143255 0.0041941 -0.0185317
27 1 55.042099 52.3667984 51.9891014 0.0147215 -0.0163567 0.0272521
28 1 43.3075981 56.2202988 48.5400009 6.1118398e-04 0.0275072 -0.0569895
29 1 52.0833015 46.3647995 44.4163017 0.0055034 -0.0163794 6.2751103e-04
30 1 44.3737984 47.7290001 42.7979012 -0.0171762 -0.037157 0.0726713
31 1 53.5031014 53.0610008 48.8493004 -0.0227061 0.020939 0.0250915
32 1 53.4948006 59.7344017 41.1066017 -5.1347899e-04 -0.0022699 0.0013938
33 2 51.9939996 54.8325005 50.9411012 -0.0041862 -0.0039091 -0.0074564
34 2 45.9267998 47.0597992 49.4192009 0.004893 0.0092268 -0.0082802
35 2 49.5497017 52.3199997 50.2341995 -0.007323 -0.0093311 -0.0216623
36 2 43.3498993 54.8796006 51.1185989 -0.0163106 -0.01682 0.0775747
37 2 51.8021012 46.9061012 49.5181008 -0.0200775 -0.019056 -0.0070949
38 2 49.0547981 57.8941994 45.1997986 -0.0650036 0.143677 0.0039827
39 2 50.2344017 47.8918 46.7075005 -0.0106594 0.0029916 -0.0068193
40 2 48.4261017 49.5788002 53.1762009 -0.0024164 0.0036376 -0.0164317
41 2 46.2472992 44.1601982 40.6105004 0.0073075 -0.0042721 0.0042354
42 2 55.7113991 52.2811012 46.8723984 0.0034116 0.0042151 0.0091652
43 2 46.8361016 49.6119004 42.5395012 0.02395 -0.0420972 0.0215645
44 2 46.6230011 51.1691017 47.4986 -0.0264645 0.0017691 0.0146981
45 2 55.0517998 46.5573006 46.2487984 -0.0106565 -0.0094455 -3.8374e-04
46 2 45.7313996 54.4079018 49.1898995 0.0319777 -0.0281132 -0.0386311
47 2 57.6343003 49.5251007 50.3200989 -0.0121385 0.0053804 -0.0050645
48 2 53.4901009 49.5401001 49.6972008 0.0248777 0.0444435 -0.0128833
49 2 43.1446991 52.6236992 43.6231003 -0.0195283 0.043737 -0.0151335
50 2 55.1786003 53.6071015 44.1463013 -0.0312675 0.0354035 -0.0487034
51 2 42.5425987 51.938099 50.1077004 -0.021057 0.0129252 -0.014103
52 2 51.9707986 42.3176994 57.8768006 0.0 0.0 0.0
53 2 53.5825997 49.3297997 45.4570008 -0.0201205 -0.0738621 0.0015853
54 2 51.1240006 47.2224007 41.1691017 -0.0552672 -0.0346455 0.0309444
55 2 54.3740997 57.2924004 49.4738999 -0.0013675 -0.0132336 -0.0085674
56 2 44.8433 46.8620988 46.3540001 0.0169499 0.0124485 -0.0555895
57 2 53.2858009 52.8863984 38.4873009 -0.0045331 -0.0030756 0.0152064
58 2 42.6222 42.8087006 49.6478005 -7.95263e-04 -0.0108092 0.0050731
59 2 50.4194985 43.8610992 45.4449005 0.0029015 0.0069923 0.0013911
60 2 48.6641007 46.3171005 44.0373993 -0.0048325 0.0144213 -0.0071698
61 2 39.7621994 50.8815002 48.2986984 0.0142508 -0.005065 -0.0020895
62 2 49.7859001 52.4331017 43.7893982 0.120897 0.0063635 0.004196
63 2 41.4259987 49.5555992 44.7354012 -0.0031255 -0.0083179 0.0016361
64 2 44.4990998 50.3154984 45.0475006 0.0602859 -0.05234 0.006001
