ITEM: TIMESTEP
144000
ITEM: NUMBER OF ATOMS
64
ITEM: BOX BOUNDS pp pp pp
0.0 100.0
0.0 100.0
0.0 100.0
ITEM: ATOMS id type x y z fx fy fz
1 1 55.1637001 53.9924012 51.0612984 -0.0256039 8.6870098e-04 -0.0172693
2 1 50.2196999 47.3498001 42.3282013 -0.0016035 -0.0048037 0.0162221
3 1 58.0040016 52.861599 48.8181 -0.0148739 -0.02382 -0.0116578
4 1 45.7165985 49.7477989 45.4612007 0.0131788 0.0394441 0.0705178
5 1 51.4047012 53.7164002 44.2282982 -0.0338345 0.0346109 -0.040202
6 1 42.3984985 50.4231987 47.1977997 -0.0238499 0.0396321 -0.0215248
7 1 55.2159996 53.5430985 45.9548988 -0.0239439 -0.0153862 0.0108065
8 1 48.0340004 45.773201 45.4452019 0.0064628 -0.0632757 0.0136672
9 1 45.9866982 52.8054009 53.7422982 -0.0318782 -0.0139709 -0.0344752
10 1 55.4025002 45.7223015 48.9908982 -0.0163435 -0.0208236 -0.0080533
11 1 54.4189987 49.4415016 46.7041016 0.0113682 0.0046243 0.0020009
12 1 48.1833992 52.5802002 39.0113983 -0.0028057 -0.0078644 0.0153737
13 1 40.592701 46.719101 49.3512993 -0.0341696 -0.13116 0.0201412
14 1 46.8302002 56.1116982 52.2033997 0.0025715 0.0062869 -0.0099769
15 1 51.9389992 53.3252983 48.3690987 0.0875828 -0.0340334 0.0680805
16 1 53.5849991 46.720501 44.2885018 -0.027075 -0.007284 -8.9818908e-04
17 1 45.856701 47.4504013 42.8843994 0.0368267 -0.0250142 -0.0945402
18 1 48.6904984 53.3894005 50.1729012 -0.0226976 -0.0277339 -0.0051692
19 1 44.171299 48.0872994 49.2164002 0.0032124 0.0103853 0.0088866
20 1 58.9785996 49.5614014 51.3567009 -0.0161871 0.0040279 -0.0144401
21 1 46.9459992 53.2140999 46.6376992 -0.0421283 -0.0112833 0.0443882
22 1 49.4411011 50.0430985 52.8560982 0.0137361 0.0280762 -0.129967
23 1 39.6899987 53.2592011 44.4138985 1.6639099e-04 -0.0031027 0.0062138
24 1 50.5265999 49.4201012 46.9972992 0.0031477 0.0111785 0.0210324
25 1 44.4964981 53.3647003 49.9231988 0.0215657 -0.0182701 0.0212973
26 1 43.8773994 45.8866006 45.5444985 0.0452808 -0.0407183 -0.0181346
27 1 52.5259018 47.9673004 50.0798988 0.0251803 0.14613 -0.0135231
28 1 53.5547982 50.7667008 43.0265999 -0.0051616 -0.0142841 0.0096047
29 1 46.7375984 47.7551003 51.8045006 0.0192537 -0.0609797 0.0368826
30 1 43.4468003 52.6689987 44.0572014 0.0252181 -0.0143357 -0.0126122
31 1 48.4152985 50.8277016 42.7762985 0.0169492 -0.160981 -0.0769528
32 1 48.9914018 46.4799996 49.2486992 0.0214209 0.0063267 -0.038377
33 2 48.0201988 53.3154984 43.8936996 -0.0021534 0.155467 0.034592
34 2 52.0919991 45.2025986 50.1316986 -0.0222401 -0.120375 -0.0104368
35 2 53.1374016 47.0522003 39.8893014 -0.0088417 0.0026813 0.0141
36 2 47.8728982 48.1599999 40.3260002 -0.0027013 0.0095945 0.0244041
37 2 54.1436997 51.2857018 52.2444 0.00178 -0.0055312 -0.0245773
38 2 48.4710999 56.6116982 42.9345016 0.0034464 -0.0079093 0.0042092
39 2 48.1156998 49.7146988 49.8181 0.0090685 0.0015402 -0.0072846
40 2 49.8013993 54.203701 46.7401009 -0.0767186 0.0363793 -0.0324757
41 2 48.4169006 51.645401 54.9642982 -8.5012102e-04 0.0384245 0.0846514
42 2 51.2327995 46.2910004 46.5133019 4.0313101e-04 0.0571392 0.0574501
43 2 44.8596002 51.0912018 41.5004006 0.0158304 -0.0040795 0.020409
44 2 47.800499 56.3590012 49.2160988 0.0020553 -0.0208242 -0.0032837
45 2 46.1996994 44.2869988 43.1067009 0.0029669 0.018617 0.0168072
46 2 43.6361008 53.4543 47.0141983 0.0053242 -0.0114924 -0.0085085
47 2 57.9766998 49.6596985 46.664299 -0.0149882 0.0113604 0.0048241
48 2 45.9925004 46.2391014 47.6861992 0.0298368 0.0028215 0.0143684
49 2 55.9641 48.6680985 49.1263008 0.0105895 0.0235888 0.0419967
50 2 43.5675011 45.2694016 50.1749001 0.004029 -0.0214108 -0.0353197
51 2 48.6469002 48.5185013 44.8087998 -0.009972 0.0532084 -0.0274232
52 2 52.530201 51.5910988 45.862301 0.0052229 -0.020081 0.0275348
53 2 49.6996002 47.9576988 54.7728997 0.0042397 -0.0664727 0.0575246
54 2 41.6982003 47.3656006 46.7092018 -0.0229831 0.0576866 6.66079e-04
55 2 42.5773011 46.7910004 52.6673012 -0.0083848 0.0290044 0.0109974
56 2 51.2626991 50.7155991 50.6278992 0.0150204 0.0357272 -0.0516317
57 2 53.3254013 51.4357987 55.3596993 -0.0088574 3.4863901e-04 0.0090865
58 2 50.6501007 44.5158997 44.1687012 -0.0107622 -0.0153043 -0.05565
59 2 41.3478012 49.3452988 49.993599 0.046964 0.116782 0.0273019
60 2 40.7547989 52.4089012 52.6376992 0.0063572 -0.0035766 -0.0052799
61 2 45.0285988 50.0862007 51.6910019 -0.0384825 0.0662195 -0.0128482
62 2 51.0195007 54.1535988 52.0345001 0.0109886 -0.0104079 -0.0065932
63 2 53.9576988 56.2030983 48.4746018 -0.0019745 -0.0318411 0.0018881
64 2 54.6333008 51.9636002 48.6054001 0.0248215 -0.0097521 0.0111587
