ITEM: TIMESTEP
180000
ITEM: NUMBER OF ATOMS
64
ITEM: BOX BOUNDS pp pp pp
0.0 100.0
0.0 100.0
0.0 100.0
ITEM: ATOMS id type x y z fx fy fz
1 1 51.5205994 45.2134018 47.3305016 0.0023111 0.0116783 0.0158807
2 1 42.1794014 55.0685997 45.3538017 -0.0419132 0.0175396 0.010133
3 1 51.8703004 45.0292015 51.6105995 0.0247849 -0.0109477 -0.0353461
4 1 46.9141998 46.0255013 40.4095001 -0.00647 -0.0360028 0.020082
5 1 53.6282997 48.9632988 45.0783005 -0.0149843 0.0344201 -0.0529015
6 1 51.9846002 50.4912987 39.035099 -0.0078177 -0.0043744 0.0254238
7 1 48.1166 41.1204987 46.3398018 -0.0260873 0.034486 0.0171585
8 1 45.4113007 54.6581002 43.8778992 0.0528816 -0.019477 -0.117547
9 1 51.550499 51.875 42.6565018 -0.0043815 0.0278556 0.0373293
10 1 46.7995987 53.0623016 39.8964996 0.0135705 -0.0153323 0.0304589
11 1 45.0637016 45.908699 44.5784989 0.0204846 0.0032216 -0.0154636
12 1 48.2206993 49.0625992 39.0228996 0.0134734 0.0406353 -0.0102571
13 1 50.9215012 57.4785996 45.7014008 -0.0309675 0.0089513 0.011089
14 1 52.5671997 46.2617989 42.5451012 0.0268011 -0.0084727 -0.0010909
15 1 42.2715988 56.1701012 41.6730995 0.0243794 -0.009399 -6.5791297e-04
16 1 44.4570008 47.473301 47.8899002 0.0203557 0.0080633 0.0320079
17 1 48.0101013 55.0042 46.2957993 0.0580294 -5.16113e-04 -0.0152786
18 1 50.4070015 48.8180008 48.3672981 -0.086762 -0.0085617 -0.0089735
19 1 53.4473 55.3656998 44.1399002 3.10482e-04 -0.0424996 -0.0124663
20 1 44.3567009 49.382 42.5918999 0.0113183 0.0182289 0.0264297
21 1 48.4804993 52.0699005 48.9025002 -0.0193284 0.0176225 0.0042902
22 1 55.3446007 52.3568001 42.5024987 -0.0197261 0.0026122 0.0258441
23 1 49.2747994 54.9938012 42.6371994 2.0302401e-04 -0.0114476 -0.0010057
24 1 47.5133019 50.403801 45.1399002 -0.0161753 -0.0540684 0.118048
25 1 52.3782005 56.2117996 39.9632988 0.0056717 0.0060462 0.0157269
26 1 49.8432008 48.6848984 42.3581009 -0.0111716 0.0215013 0.0197861
27 1 48.8041001 51.6211014 54.5368004 -0.0045506 -0.010292 -0.0241631
28 1 49.669899 47.3353005 53.3847008 -0.0189584 0.0160305 0.020152
29 1 51.9978982 52.1673012 47.9300004 0.0370293 -9.1589098e-04 -0.0105485
30 1 57.8955994 52.5455017 39.8849984 0.0149775 7.6972299e-04 -0.0183212
31 1 44.5187989 52.6903 46.8820992 0.044512 -0.0338039 0.0229273
32 1 46.8012009 58.4752999 43.9539986 4.77459e-04 -0.0322113 0.0083391
33 2 53.1867981 48.1797981 47.8779984 0.0386454 -0.0229787 0.0198273
34 2 48.5904007 44.5411988 46.0774002 0.0027501 -0.0022609 -0.0070278
35 2 46.2946015 50.1925011 48.1120987 -0.0102063 0.0375484 0.0470246
36 2 45.1372986 45.8706018 52.7442017 0.003478 0.0024109 -0.002278
37 2 50.032299 40.3367005 44.2174988 0.0226882 -0.0050704 -0.0266557
38 2 44.5155983 49.5690995 45.7396012 -0.0214651 0.0082117 -0.0657838
39 2 53.7307015 49.8452988 41.7821999 -0.0219947 -0.0226541 0.0052257
40 2 47.5154991 47.6850014 46.9099008 0.0251048 -0.0313928 -0.0319362
41 2 51.1408005 47.2361984 39.0228004 -0.0121309 0.0201248 0.0238572
42 2 45.0635986 56.2672005 46.2499008 -0.0105838 0.0349161 0.0376835
43 2 48.0716019 51.4351998 42.5845986 0.0342103 0.0498867 -0.120347
44 2 42.1594009 45.9361992 46.476799 0.0105383 4.2863898e-04 -0.0111033
45 2 57.6250992 48.4864998 55.3055992 -1.98803e-04 -9.4000702e-05 -1.6062399e-04
46 2 46.5102997 43.0181999 43.5814018 0.0052919 0.0142079 0.0087344
47 2 49.1044006 59.5948982 48.8922006 0.0015976 -0.0068729 -0.0064667
48 2 50.8647004 50.3843002 45.5914994 -0.0151321 0.013818 -0.0115445
49 2 44.2229004 47.9826012 39.9257012 0.0189219 -0.012801 -0.0137012
50 2 51.0266991 54.3059998 46.0428009 -0.0036398 0.0097469 -0.0306675
51 2 50.9292984 47.1713982 45.0555 -0.0024755 0.0190594 0.0052174
52 2 49.1156998 49.4814987 51.2919998 0.0040957 0.0145746 -0.0269304
53 2 46.463501 54.7288018 48.7327996 -0.0239772 -0.0344073 0.0568391
54 2 45.5602989 55.7304001 40.9441986 -0.0057156 0.0027109 0.0128575
55 2 46.9916 51.9388008 51.6671982 5.1730104e-04 0.0071101 0.0025617
56 2 53.8447 44.0923996 45.6316986 -0.0014019 0.0097219 -0.0071457
57 2 50.0550995 54.6929016 49.5138016 -0.001141 -0.0067774 -0.020328
58 2 54.4670983 45.5022011 49.2472 -0.0189756 -0.010765 8.4496098e-04
59 2 50.8961984 53.5749016 40.0443993 -0.018151 -0.0313049 0.015063
60 2 54.0481987 52.2607002 45.4026985 -0.0249015 -0.0041941 -0.0115889
61 2 49.5457993 45.6772995 42.5181999 -0.0274582 -0.0264246 -0.0113043
62 2 43.8101006 52.457901 42.7084008 -0.0121962 -0.0158923 -0.0078812
63 2 44.1949997 44.5838013 40.0348015 -0.0019959 -0.0024745 0.0053884
64 2 46.9420014 47.787899 42.8405 0.003624 0.0205477 0.0346395
