ITEM: TIMESTEP
162000
ITEM: NUMBER OF ATOMS
64
ITEM: BOX BOUNDS pp pp pp
0.0 100.0
0.0 100.0
0.0 100.0
ITEM: ATOMS id type x y z fx fy fz
1 1 50.4285012 45.5457993 45.2022018 -0.0034192 -0.0085152 -0.101733
2 1 44.1357002 48.8974 43.0825996 0.0014136 0.0048884 0.0078158
3 1 55.971199 42.9463006 47.3630982 -0.0248758 0.0132214 -0.0084117
4 1 50.1394005 52.6320992 44.3902016 -0.0088935 1.85025e-04 -0.0769177
5 1 53.2071991 49.8653984 42.8577004 0.0493965 -0.0113447 -0.0693011
6 1 47.0089989 55.918499 44.5475998 -0.0037099 0.0178599 0.0156878
7 1 54.205101 43.2624016 42.7882996 -1.6637501e-04 -0.0080317 0.001285
8 1 47.1599007 43.4905014 45.1232987 0.0572128 0.0164624 -0.047953
9 1 46.9342996 53.5359001 47.6008988 -0.0150541 0.0030004 -0.0233965
10 1 52.0205994 46.1739006 41.950699 -0.0098264 0.0085414 0.0035946
11 1 52.3576012 45.0932007 48.2804985 0.046298 0.0171103 -0.0351643
12 1 48.5047989 51.7509995 40.5886002 0.0042655 -0.0026354 0.0312827
13 1 42.225399 54.5634003 51.5415993 -0.032402 -0.0296731 -0.0208483
14 1 50.9117012 62.2346993 46.8931008 -0.0041176 -0.0206949 0.001042
15 1 47.9325982 48.3891983 43.5367012 0.0016765 -0.0111282 0.0086678
16 1 48.5469017 44.8307991 49.997799 -0.0027361 -0.015579 -0.0247542
17 1 43.8120003 52.6982003 45.8899002 0.0047198 -0.0297951 -0.0185016
18 1 51.8748016 49.1878014 47.3042984 9.4621697e-06 -0.0187541 -0.0342626
19 1 44.7095986 56.8028984 50.1036987 -0.0914411 0.0244208 -0.05678
20 1 48.4936981 37.9641992 46.9034996 9.1361694e-05 -0.0036612 0.0047491
21 1 53.1673012 54.4440995 46.1478005 -0.0279927 -0.0184414 0.0160561
22 1 47.2980995 57.3596001 52.4655991 0.0263063 0.0179041 0.0744819
23 1 47.9407006 58.0049019 47.6180001 0.0151322 -0.0354736 0.0460152
24 1 48.1903992 50.1669006 46.7538986 0.0617056 0.0615865 0.0126436
25 1 50.1172981 54.3462982 48.987301 0.0113002 0.0720013 0.064291
26 1 45.5424004 54.4900017 41.5890999 0.0016091 -0.0291447 -0.013268
27 1 49.5844002 48.485199 50.2145996 -0.0117586 0.0089451 -0.0023291
28 1 50.3950005 40.9945984 45.6775017 0.0303557 -0.0132873 -0.0416335
29 1 46.1236 53.4189987 51.1548996 0.0205547 -0.0330233 -0.006265
30 1 50.4636994 58.1052017 44.6399994 -0.0132657 -0.020222 0.015495
31 1 46.6011009 47.0401001 46.9529 0.014015 -0.0758362 0.0135509
32 1 43.3595009 48.4916001 47.6257019 -0.0681279 -0.0174534 0.0088738
33 2 53.8210984 50.8902016 45.5634003 -0.0049991 0.0273315 0.0323874
34 2 52.6665993 43.3927994 45.3933983 0.0365584 0.0069395 0.0660345
35 2 45.1281014 45.9571992 49.9202004 0.0177477 0.0077623 -0.021562
36 2 49.8865014 48.3047981 41.2461014 0.0128487 0.013056 -0.0096022
37 2 52.6547013 38.4564018 47.985901 -0.0178469 -0.0308975 -0.0102328
38 2 48.3320007 45.0910988 42.4193001 -0.0084653 0.0333253 0.0209175
39 2 49.3415985 54.8619004 46.0551987 0.006325 0.0613128 0.0412998
40 2 55.1943016 46.1166 47.2314987 -0.0089185 -0.0120464 0.0017481
41 2 51.8330002 58.8414994 47.6241989 -0.0189721 8.7397595e-04 -0.0143351
42 2 45.3436012 49.7594986 45.7863007 0.0098625 0.0012573 -0.138427
43 2 52.9668008 53.9777986 43.1156006 -0.0188129 -0.0156759 -5.4437204e-04
44 2 48.7825012 42.4527016 52.2440987 3.3639e-04 0.0086164 -0.0102606
45 2 41.8484994 59.3460007 49.0031013 0.0081462 -0.0079903 0.0025
46 2 54.5161019 52.6497994 48.4127998 -0.0123997 -1.38298e-04 -0.005437
47 2 45.6227989 43.2176018 47.5806999 -0.0191815 0.0091738 0.0540691
48 2 46.7333985 52.7941017 44.4295998 0.0111945 -0.0054592 0.0093292
49 2 51.5400009 44.1433983 50.9356996 -0.0211273 -0.0136543 0.0316
50 2 43.9227982 53.0483017 48.9942018 -0.0077421 -0.0146099 0.0329101
51 2 50.7513008 49.7433014 44.3025017 -0.0849938 -0.0513165 0.0635713
52 2 50.8880998 52.2001 47.2373009 0.0291521 -0.0752615 -0.0227854
53 2 45.5357018 50.2207985 48.6335984 0.0599391 0.0428872 0.117165
54 2 49.4490013 55.1674995 42.2478981 -0.0124489 -0.0132742 0.0268291
55 2 46.7420998 63.3395996 48.4217987 0.0036691 -0.0032819 -0.001755
56 2 53.3571015 41.4413986 48.3333016 -0.0048035 0.0557603 -0.0046556
57 2 44.6729012 54.9911004 53.1852989 0.0167702 0.0420823 0.0295842
58 2 53.1646996 47.3130989 44.8582002 -0.0257636 -0.0015541 -0.0022806
59 2 44.5642014 55.4263993 47.1861992 0.021331 0.0529742 -0.0249904
60 2 47.2521019 59.0805016 44.9477998 0.0038991 0.0024687 -0.0344855
61 2 47.4471016 55.9317018 49.9202996 0.0775754 -0.0612172 -0.0710131
62 2 49.7084999 46.6711998 47.7200012 -0.0274678 0.053655 0.0649384
63 2 50.7668 43.2183991 43.0294991 -5.43079e-05 -0.0104858 -0.0178909
64 2 50.0777016 43.3644982 47.3175011 -0.0496332 0.033954 0.051362
