ITEM: TIMESTEP
118000
ITEM: NUMBER OF ATOMS
64
ITEM: BOX BOUNDS pp pp pp
0.0 100.0
0.0 100.0
0.0 100.0
ITEM: ATOMS id type x y z fx fy fz
1 1 48.6720009 62.3692017 57.489399 0.0 0.0 0.0
2 1 38.4730988 46.5975991 48.1002007 0.0043943 0.0513667 -0.0240256
3 1 51.0926018 52.4490013 48.7887001 -0.0294147 -0.030024 0.0361171
4 1 55.3431015 50.7100983 42.8893014 -0.0088577 0.0568517 -0.0645542
5 1 39.2514992 43.4543 49.5432015 0.0277584 -0.039417 0.0135133
6 1 46.9042016 45.0688019 41.3200989 -0.0705923 -0.0072707 -0.018307
7 1 50.4108009 55.9920006 49.8188019 -0.0183128 0.031123 0.0689819
8 1 57.3969994 57.2279015 47.8376999 -0.0032946 4.9352598e-05 -0.0048295
9 1 48.8768998 45.9827996 50.3431015 0.0364179 -0.0952855 0.0448424
10 1 43.9856988 52.033699 45.5943985 0.0136456 -0.0275324 0.0187372
11 1 46.9515992 51.2162018 50.1220017 0.0226066 0.151977 0.0507558
12 1 45.8279 54.7649994 51.0890007 -0.0086741 0.0045556 0.0054468
13 1 51.0581017 54.6693993 43.8400002 -0.009046 -0.002061 0.0253126
14 1 46.6767006 48.1618004 48.7397003 -0.0781713 -0.0777629 -0.140213
15 1 42.6469994 43.2666016 46.2258988 0.0141361 0.0299338 0.0129729
16 1 48.4912987 51.7808991 45.5705986 0.09893 0.119113 0.0278152
17 1 52.1155014 47.8936996 43.0867004 -0.0152543 0.0086058 0.058468
18 1 50.2013016 50.9956018 52.4197998 -0.0112992 0.0051185 -0.0149148
19 1 50.3101998 47.474701 47.1486015 0.0561978 0.046723 -0.0071148
20 1 47.7495995 56.2691994 45.4701004 0.022356 -0.0102857 0.0268326
21 1 46.3256989 48.6911011 53.2422981 -0.0123689 -0.0333096 -0.0060643
22 1 56.8087998 54.5453987 50.4608994 0.0061567 0.0102735 0.010943
23 1 53.6520996 55.2793999 47.4724999 -0.0103228 0.0050931 -0.0284966
24 1 43.1874008 47.9496002 45.7453003 0.0359076 -0.0188563 0.020011
25 1 42.9185982 47.9346008 49.7587013 0.0138371 -0.0203199 -0.0057535
26 1 45.7378998 43.4057007 49.1953011 0.0262824 -0.0335981 0.0486733
27 1 52.1794014 51.3344994 45.300499 -0.0102061 -0.0230605 -0.0321649
28 1 47.3532982 46.9620018 45.1693001 -0.034872 0.0359106 -0.0688914
29 1 54.5895005 51.8268013 49.5886002 -0.0130515 -0.0360132 -0.0177701
30 1 46.7042008 49.4101982 42.2527008 0.0121512 0.0032954 0.0214649
31 1 44.3496018 43.0700989 53.1701012 0.0164873 0.0035251 -0.0106042
32 1 52.1455994 48.2834015 50.4692002 -0.0183848 0.0087968 0.0016422
33 2 46.3881989 53.7391014 44.4570008 -0.0076736 -0.0151788 -0.0047852
34 2 53.1328011 54.5311013 50.2911987 -0.0029397 -0.0226839 0.0302319
35 2 48.7235985 53.6823006 51.2489014 0.0239899 -0.0267342 -0.002901
36 2 55.1869011 49.0205002 45.1773987 -0.0272919 -0.0470034 0.0774981
37 2 59.0371017 60.2636986 51.9332008 -4.52351e-04 -0.0014858 -0.0013795
38 2 46.4342003 49.918499 45.4440995 -0.128042 -0.104317 0.0081737
39 2 49.4452019 49.306099 44.0505981 0.0058703 -0.0208846 0.0083959
40 2 41.5625 45.7699013 47.9617004 0.0011543 -0.0035481 -0.0080596
41 2 45.6097985 46.3548012 51.0452995 0.0055285 -0.0023041 -0.0073758
42 2 49.1561012 50.1451988 48.1040993 -0.0189964 -0.0034115 0.0063822
43 2 52.4504013 49.8494988 47.8732986 0.0162472 -0.0124314 0.0094798
44 2 44.9669992 45.4556008 44.0452003 -0.013882 -5.5455299e-04 0.0014441
45 2 47.6581002 52.6386986 40.0391998 -0.0011135 -0.0066271 0.0093697
46 2 49.2742005 45.8317986 42.7557984 0.0664017 0.0419312 0.0534464
47 2 54.6906014 52.6618996 46.2722016 0.0176143 -0.0100328 0.0146311
48 2 59.4967003 52.5830002 50.2668991 -0.012097 0.0081864 -6.7139101e-04
49 2 47.5177994 54.9608002 48.5120011 -0.0079509 -0.002832 -0.0152983
50 2 48.3988991 48.7635002 51.0742989 0.0522024 0.0415833 0.0334058
51 2 52.4548989 47.7877007 40.1506996 0.0029672 -1.6567799e-04 -0.0353422
52 2 41.1753998 50.0760994 46.8454018 0.0147871 -0.0019143 0.0059696
53 2 48.6404991 47.3019982 55.2918015 -0.0072686 0.0084094 -0.0164123
54 2 48.1968002 45.3637009 47.4393006 0.0023916 -0.0498389 0.0470067
55 2 45.0528984 45.6994019 47.6181984 -0.0518845 0.0862534 -0.056746
56 2 52.9095994 47.5564995 53.3989983 -0.0055845 0.0041593 6.8895402e-04
57 2 54.3252983 52.3087998 52.8214989 -0.0036003 4.5973201e-04 -0.0198186
58 2 50.3857002 54.8101006 47.2033997 0.011734 -0.0042756 -0.130853
59 2 47.1427002 41.2265015 54.0186996 -0.0127307 0.0079718 -0.0025361
60 2 49.4421005 41.7960015 51.6043015 -0.0025137 0.0079784 -0.0054241
61 2 61.993599 56.4042015 48.3446007 -0.0046266 -4.3752098e-04 5.84961e-04
62 2 44.2397995 50.5112 48.7727013 0.0139389 -5.46521e-04 -0.0265264
63 2 43.0898018 57.6447983 51.5088997 0.0063587 -0.0065324 -0.0012667
64 2 47.3088989 51.5054016 53.6899987 0.0123208 0.0192919 -0.0201384
