ITEM: TIMESTEP
190000
ITEM: NUMBER OF ATOMS
64
ITEM: BOX BOUNDS pp pp pp
0.0 100.0
0.0 100.0
0.0 100.0
ITEM: ATOMS id type x y z fx fy fz
1 1 46.3042984 41.0125008 43.8331986 0.0143887 -0.0014455 0.0044606
2 1 43.6394997 55.2384987 42.6002007 0.0105436 -3.1059599e-04 0.0403505
3 1 50.4183998 49.1590004 48.5054016 -0.0428278 0.15215 5.7107601e-04
4 1 45.0503998 47.7196007 44.6357994 0.0289458 0.0042243 0.0257009
5 1 51.2804985 45.0870018 45.6222 0.0184711 -0.0173348 0.0277151
6 1 50.1636009 47.6060982 39.6041985 -0.0204514 -0.0048895 0.0247762
7 1 44.1834984 44.2262993 44.0227013 -5.0445304e-04 -0.0084958 -0.0196578
8 1 51.6231995 56.9457016 39.6925011 -0.0110585 -0.0201174 0.010247
9 1 53.0596008 52.4564018 42.1615982 -0.0229146 -0.0176824 0.0138603
10 1 47.9146996 55.0386009 39.8824998 -0.0453967 0.064637 -0.0077269
11 1 45.3638001 51.6978989 41.8583984 0.0261222 0.0066709 0.015526
12 1 43.7681008 48.1941986 41.3217011 0.0083496 0.024918 -0.0341565
13 1 52.8997002 52.7543984 46.1595001 -0.0025572 0.0259917 -0.0333074
14 1 47.7672005 44.5905991 45.406601 -0.0546339 0.0084699 -0.0495523
15 1 42.1414986 52.2257004 38.7442017 0.0196939 0.0047999 0.01564
16 1 45.5937004 52.1251984 48.0410004 -0.0498347 -0.107359 -0.0092543
17 1 52.9902 56.0606003 48.9328996 0.0229436 0.0344129 0.0012651
18 1 46.5247002 48.1896019 48.1156998 0.0151482 -0.0498436 0.067443
19 1 56.2989998 58.4976998 50.0449982 -0.0070874 -0.0064887 -0.0020024
20 1 48.8112984 51.6705017 39.9594002 -0.0036486 -0.0513854 -0.0028924
21 1 52.0651016 52.6901016 50.0004005 -0.0252245 -0.0273177 -0.0069115
22 1 52.1609993 48.5200005 43.3358994 0.0071335 -0.0092984 -0.0690161
23 1 50.0337982 55.0238991 42.7951012 0.0244845 -0.0374896 0.0347029
24 1 49.1181984 52.8900986 45.8974 -0.0530233 -0.0438869 0.0074057
25 1 52.6007996 50.4225998 38.6290016 0.0182176 0.0169817 -0.0248411
26 1 48.3773995 49.2029991 43.1767006 0.0069789 -0.0752544 -0.009918
27 1 48.9597016 55.783001 49.8857994 0.0112816 -0.0194699 -0.0241029
28 1 48.1259995 53.117199 52.7335015 0.018039 -0.0030971 -0.0155977
29 1 53.2347984 47.9967996 46.6064987 0.102013 -0.091166 -0.0826847
30 1 46.3787003 43.453701 40.8152008 1.6783301e-04 -0.0029362 4.0344996e-04
31 1 46.3151016 56.7378998 45.5640984 -0.0052538 -0.0186171 -0.0030417
32 1 48.6341019 58.4257012 42.9622002 -0.0051032 -0.0040524 0.0031426
33 2 48.1963005 50.8936996 49.2597008 -0.0379187 0.0351969 9.7380505e-04
34 2 48.6458016 45.094799 48.1945992 -0.0121429 -0.0011442 0.0268862
35 2 47.0413017 54.4994011 47.6186981 0.0750359 0.0997944 -0.0175008
36 2 51.7773018 52.9389992 53.2374992 -0.0211121 -0.0626847 -0.0167331
37 2 47.1514015 38.7915001 46.881199 -9.4709997e-04 0.0085048 -0.0087537
38 2 46.8768998 54.9729004 43.0432014 0.0013179 -0.0102845 -0.0101851
39 2 50.9141998 50.1724014 45.4541016 -0.0121881 0.0383613 0.0271226
40 2 36.3258019 48.5788994 48.7807007 0.0 0.0 0.0
41 2 50.5707016 45.9361992 42.8722 -0.0335272 0.0164746 -0.0354223
42 2 49.4043999 56.6344986 45.7625008 -0.0268288 0.0210889 -0.0480581
43 2 48.8451004 52.0643997 43.0772018 0.0046103 0.0533693 -0.0453551
44 2 46.9173012 49.8230019 45.7951012 -0.0097819 0.121702 -0.0522236
45 2 51.4141998 46.5828018 48.3100014 0.0293597 -0.171961 0.043967
46 2 44.5544014 44.3792 48.172699 0.0114689 0.0073686 -0.0138831
47 2 57.0780983 46.5405007 48.5881996 -0.0051093 0.0021696 -0.0022499
48 2 50.8115006 54.6080017 47.4958992 0.0364073 -0.0202033 0.0708453
49 2 44.103199 53.1008987 45.1330986 0.0222095 0.0034949 -0.0080042
50 2 52.4682999 55.6888008 44.6119995 0.0012289 -0.0191757 0.0082444
51 2 46.860199 45.9726982 42.5486985 -0.0063294 0.0189063 0.0232414
52 2 53.2055016 38.2033005 56.3282013 0.0 0.0 0.0
53 2 53.4151001 50.4323006 47.8974 -1.79324e-04 0.120702 0.110642
54 2 51.5331993 53.2902985 39.5592003 -0.0158296 0.0093441 0.0106859
55 2 52.2265015 55.9049988 53.3358994 0.0070576 0.0600202 -0.008536
56 2 49.0138016 47.6652985 46.1934013 0.0258338 -0.0543112 -0.026929
57 2 54.9132996 53.5567017 48.8790016 -0.0170337 -0.0042002 -0.0107827
58 2 49.9564018 42.0951004 45.4473992 -0.0126552 0.0196674 -0.0013709
59 2 51.0365982 50.1257019 41.1016007 -0.0067547 0.0063826 0.0552552
60 2 54.9006996 50.1613998 43.7216988 -0.0263754 0.0050955 0.0067084
61 2 46.6800995 40.2389984 40.1493988 -0.0021999 0.0135418 0.0135132
62 2 44.7835999 54.2036018 40.0581017 0.0181547 -0.0189518 -0.029773
63 2 43.7943001 45.2803002 40.5485993 0.0097761 -0.0245785 0.0107213
64 2 46.6612015 49.3474999 39.8317986 0.0010496 9.9187994e-04 0.0284069
