ITEM: TIMESTEP
122000
ITEM: NUMBER OF ATOMS
64
ITEM: BOX BOUNDS pp pp pp
0.0 100.0
0.0 100.0
0.0 100.0
ITEM: ATOMS id type x y z fx fy fz
1 1 52.8951988 62.0531006 52.5186005 -4.3176198e-05 -9.8012791e-04 -7.5778499e-04
2 1 41.2294998 47.1699982 45.3217011 0.0152003 0.0426527 -0.038403
3 1 52.0863991 52.7924996 50.5746002 0.0150354 -0.0152385 0.0199375
4 1 52.1007996 50.1324005 42.5371018 0.0180175 0.0022833 -0.0873888
5 1 36.8983994 45.6360016 46.2597008 0.0137641 0.0018362 0.0016548
6 1 44.6985016 48.9365998 41.5037995 -8.0254602e-04 -0.0210301 0.025767
7 1 51.0514984 55.596901 48.3792 -0.0469837 0.0104277 0.0260221
8 1 55.9532014 53.9126016 50.7359009 -0.0332936 -0.0159097 0.0377381
9 1 49.0063019 46.6343994 53.5502014 -0.0067286 0.0249086 -0.021316
10 1 45.8321991 52.0833015 43.1319008 -0.0540997 0.0024005 0.0274879
11 1 47.8120003 51.4884987 49.0575981 0.0197646 -0.0089902 -0.0152228
12 1 47.8119011 55.4505005 51.6507988 0.0025531 -0.0281321 -0.0211569
13 1 50.6604004 55.7053986 43.5600014 0.0697718 -1.13003e-04 -0.0113441
14 1 45.3091011 49.3692017 50.7401009 0.0199819 -0.0291194 0.0099667
15 1 43.5323982 44.5802994 46.6455002 0.0271321 0.0021862 -0.0019377
16 1 50.6729012 52.091301 46.5681992 -0.0304434 0.117187 0.0354025
17 1 50.6833992 46.804699 45.7540016 0.036639 -0.0395346 0.0257703
18 1 49.1654015 52.2141991 53.4975014 -0.0035897 -0.0323108 -0.0243203
19 1 48.5359993 47.4877014 48.9193994 0.0217162 0.0609431 -0.0082474
20 1 47.7019005 54.7630005 45.1780014 -0.0549034 -0.0460035 0.0325578
21 1 44.2804985 51.3129997 54.0073013 0.0247545 -0.0030913 -0.0132076
22 1 56.8908006 48.6804009 46.0970001 0.0334159 0.0097821 0.0061308
23 1 54.1623001 52.7108994 44.4494019 -0.0137242 0.0091473 0.0298094
24 1 44.8401986 49.0410004 46.4861985 -0.0478721 0.0821087 -0.0434602
25 1 42.4961014 47.3648987 49.0245018 0.0476649 0.0491746 0.0309265
26 1 46.5401993 44.9910012 50.9221992 -0.0391514 0.0098117 0.0233781
27 1 53.5205002 49.7629013 46.9216996 -0.0403751 -0.0240668 0.0093844
28 1 47.1417999 45.3744011 45.6483002 -0.017191 0.0208319 0.0189427
29 1 55.5950012 50.2317009 49.9089012 -0.0082648 0.0022834 0.0104099
30 1 48.078701 49.1535988 44.9243012 -0.0052344 0.0426856 0.0073031
31 1 47.8314018 41.6846009 53.4842987 -0.008008 0.0112159 -0.0164023
32 1 51.9707986 48.3263016 51.3138008 -0.0093085 0.0601129 0.0613537
33 2 44.3068009 54.0008011 47.3679009 0.0147094 -0.0124141 -0.0031311
34 2 53.7307015 52.7695999 47.8314018 0.0104787 -0.0627894 0.0424564
35 2 53.5429001 57.9255982 48.6904984 -0.0088297 -0.0162738 -0.0028206
36 2 52.2179985 46.5610008 43.0900993 -1.9439e-04 0.0189545 -0.0014687
37 2 57.0517998 54.8224983 48.1562996 0.0072978 0.007264 -0.0394467
38 2 46.648201 51.5644989 46.1659012 0.0058292 0.0234538 -0.0019366
39 2 51.0721016 49.6845017 45.1223984 -0.0235574 -0.0696594 0.0419228
40 2 40.7532997 45.4397011 47.7044983 -0.0487969 -0.0533586 -0.0018883
41 2 42.9744988 53.1160011 51.7697983 0.0100554 5.217e-05 -9.8617802e-04
42 2 50.808899 50.4426003 49.1805992 -0.0035369 -0.0330185 -0.0157414
43 2 51.5647011 47.0400009 48.7876015 0.0034637 -0.0253239 -0.0863352
44 2 44.1100998 46.5707016 43.7458 0.0040664 0.0129862 0.0269213
45 2 52.5327988 53.8231011 38.0541992 -3.4094401e-04 -4.6113e-04 0.001646
46 2 48.4910012 47.7394982 42.3395004 0.0060852 -0.0098291 -0.0147438
47 2 54.5279999 46.7212982 45.9543992 -0.0292157 0.0087328 0.0026382
48 2 58.5414009 50.6554985 48.9003984 -0.009994 -2.03321e-04 -0.0064216
49 2 47.9766006 54.3870011 48.1837006 0.0130467 0.009952 0.0207189
50 2 48.4000015 49.4654999 51.3482018 0.0141546 -0.008634 0.020427
51 2 48.7257996 51.6897011 43.0870018 0.0659674 -0.0110586 0.0203433
52 2 43.0984001 50.1716995 44.4202004 -0.0136309 0.0084581 -0.0428534
53 2 47.1533012 49.2947006 54.8394012 0.0037801 0.0071201 -0.0235015
54 2 49.2621994 44.6912003 49.7391014 0.0277282 -0.02081 -0.0054093
55 2 45.6843987 47.0560989 48.2341995 0.0051388 -0.121109 0.0929658
56 2 51.8132019 49.9889984 54.0391998 -0.014746 0.0065965 -0.0151936
57 2 53.9856988 52.783001 53.6377983 -0.0028075 -0.0016927 -0.0240533
58 2 52.9734002 55.1641007 46.2317009 0.0086242 0.0365831 -0.0893821
59 2 45.7897988 41.5791016 50.8115998 0.0104346 0.0116 0.0138502
60 2 46.0484009 43.6692009 48.2524986 0.0070097 0.0053699 -0.0292133
61 2 58.3381996 51.2822991 54.0522003 -0.0045655 0.0014979 -0.0047767
62 2 43.2700997 50.9729996 49.198101 1.02626e-04 -0.0058897 -0.0256073
63 2 45.0264015 55.6688004 50.217701 0.0047118 -0.0094574 0.0018499
64 2 46.4709015 52.2616005 51.7041016 -0.0078626 0.0059021 0.0123923
