ITEM: TIMESTEP
112000
ITEM: NUMBER OF ATOMS
64
ITEM: BOX BOUNDS pp pp pp
0.0 100.0
0.0 100.0
0.0 100.0
ITEM: ATOMS id type x y z fx fy fz
1 1 43.7181015 55.526001 60.0723991 1.94095e-04 -2.3831899e-04 -5.40942e-04
2 1 41.6862984 48.9076004 46.8941994 -0.0505964 0.0334595 0.0481549
3 1 49.4986 51.4520989 50.4351998 0.0235389 -0.0208857 -0.0242743
4 1 52.8558998 49.6423989 44.5802002 -0.0119382 0.0087868 0.0215118
5 1 42.4659996 44.2857018 49.7294998 0.0051048 0.0173212 -0.0081749
6 1 49.6016999 53.9538002 42.2612991 0.0057786 -0.002823 0.0207685
7 1 46.8885002 54.0740013 48.3260994 -0.0128824 -0.0348093 -0.0357965
8 1 53.4617005 55.6739006 47.4075012 -0.0327174 5.6626101e-04 -0.0044343
9 1 51.674099 47.174099 49.306099 -0.0289866 -0.0104322 0.0221905
10 1 43.8744012 51.0820007 43.3694 -0.0311232 -0.0220851 -0.0200072
11 1 48.3222008 48.0430985 52.5974999 0.0244535 0.0083263 -0.0608557
12 1 45.5116005 52.2015991 53.9118996 -0.0089763 2.7782302e-04 -0.0107102
13 1 49.1563988 56.7804985 46.9342004 0.0211624 -0.0211574 -0.0044298
14 1 48.4143982 47.4889984 46.4915009 0.0065544 0.0153574 0.0042654
15 1 44.3403015 46.2862015 46.790699 0.0125124 -0.0739949 -0.0061885
16 1 46.2523995 53.3911018 44.4878006 0.0186255 0.0476241 0.0352118
17 1 54.6716004 46.6150017 42.7874985 -0.0231368 -0.0421102 -0.0028921
18 1 51.2028999 50.3028984 53.7538986 -0.0383492 0.115062 -0.0178753
19 1 53.6806984 45.8196984 46.3913002 -0.0381549 0.0982912 0.0675198
20 1 41.9855004 53.3922997 47.8633996 0.0206348 -0.0159881 -0.001918
21 1 45.4856987 43.4687996 51.8955002 0.0095785 0.0159405 -0.0050032
22 1 54.1259003 56.5329018 51.0737991 -0.014366 7.3760004e-04 -0.0031568
23 1 49.4328003 55.4570008 50.6273003 0.0096356 -0.0266243 0.0323076
24 1 46.5453987 47.0652008 42.6973 9.1373797e-04 0.0176708 0.0342798
25 1 45.4863014 49.1449013 48.4645996 0.0048766 0.0417849 0.0352992
26 1 47.9555016 45.5747986 49.5723 -0.0183197 0.0060943 0.0217748
27 1 49.287899 51.7739983 45.5819016 0.0683675 -0.04178 -0.0334298
28 1 51.230999 41.8244019 46.0840988 0.0024801 0.0350569 0.0046428
29 1 52.6222992 52.1122017 48.5429001 0.0077612 -0.0279333 -0.010226
30 1 47.5228997 50.7705002 41.985199 0.0075135 -0.0124184 0.0183173
31 1 51.6439018 44.3185005 51.5134011 -0.0023597 -0.0062387 0.0380921
32 1 53.9109002 47.9271012 52.2086983 0.0116836 -0.0140336 0.0327459
33 2 43.1197014 53.6870003 44.9099008 -0.0049776 0.0105597 -0.006734
34 2 51.908699 53.0348015 51.5530014 -0.0074908 0.0230141 -0.0011638
35 2 46.9501992 52.6799011 51.0074005 -0.051091 0.0191042 0.0359382
36 2 55.4987984 49.4401016 43.0042 0.0200759 0.0409038 0.0034035
37 2 47.8348999 55.2042999 53.6133995 7.7715302e-04 -0.0164869 -0.0168155
38 2 46.9701004 49.7248001 45.0470009 -0.0267939 0.0096247 -0.0391957
39 2 50.5615006 47.6731987 44.3345986 2.1408e-04 0.0013251 -0.0148764
40 2 43.7211991 48.5611992 44.8964006 0.0657426 -0.0270055 -0.0402994
41 2 44.8378983 46.5150986 50.1208992 0.0084594 -0.0096034 -0.0107705
42 2 47.6974983 51.0474014 47.8174019 -0.0276 0.0517891 0.0621481
43 2 50.940899 49.1837006 47.3735008 -0.0082185 0.078893 -0.0634024
44 2 50.6165009 50.9608002 42.8507996 -0.0146635 0.0064465 0.0060716
45 2 45.2090988 54.3585014 39.0283012 0.0016575 -0.0021915 0.0038224
46 2 54.0848007 43.5681992 44.7485008 0.0060322 -0.0889275 -0.0700993
47 2 51.0612984 54.0777016 45.1971016 0.0447017 0.0432425 -0.055945
48 2 50.8470994 58.1534996 50.8894998 0.0159804 7.0289202e-04 -0.0036958
49 2 44.6307984 51.7863999 46.9744988 0.0076987 -0.0073835 -0.0031831
50 2 48.5513993 48.7038994 49.4776993 0.0074268 -0.0733493 0.0388572
51 2 52.6668015 48.7109986 41.3683014 -0.0016283 -0.0048106 0.0161512
52 2 42.1953011 49.1750984 49.9235992 0.0213119 -4.2621403e-04 -9.60672e-04
53 2 51.082901 47.4552994 53.6636009 0.0237473 -0.0970179 -0.012841
54 2 50.5009995 44.0834007 48.7018013 0.0094644 0.0064068 -0.0327975
55 2 49.4174004 44.7174988 45.2812004 0.0054049 -0.0066955 0.0139161
56 2 52.0960007 49.9076996 50.9011994 -0.0100585 -0.0105557 -0.0464829
57 2 56.2913017 58.2008019 49.1954994 -0.0124739 -0.0102371 0.0031808
58 2 50.2378998 53.9374008 48.0880013 -0.0413107 -0.0099593 0.0460963
59 2 53.6833992 49.7911988 55.2034988 0.0433202 -0.0184434 0.0115845
60 2 52.5751992 43.1360016 60.347599 -4.1012502e-06 5.01267e-05 -5.7575598e-05
61 2 55.4995003 53.7285996 46.138401 -0.0053069 -0.0093975 0.0011652
62 2 46.043499 48.6348992 54.3241005 -0.0412829 0.0248138 0.0255092
63 2 43.6936989 53.3073006 51.6996994 -0.0063392 0.0018913 -0.0178587
64 2 48.338501 51.3334007 54.1675987 0.027762 -0.0150823 -0.0178338
