ITEM: TIMESTEP
186000
ITEM: NUMBER OF ATOMS
64
ITEM: BOX BOUNDS pp pp pp
0.0 100.0
0.0 100.0
0.0 100.0
ITEM: ATOMS id type x y z fx fy fz
1 1 46.7673989 39.8200989 42.7672997 0.0234216 -0.0306007 0.0495241
2 1 43.3564987 55.4165993 42.5769997 0.0085387 -0.013089 -0.0289845
3 1 51.3558006 48.8284989 48.9054986 -1.61562e-04 7.1711798e-04 -0.0163346
4 1 44.1439018 47.3414993 42.0578995 -0.0230197 0.0220558 0.040955
5 1 52.5345001 47.9404984 45.2989998 0.0337159 -6.2582502e-04 -0.0372045
6 1 52.7538986 49.1407013 40.1969986 0.0890405 -0.0177963 -0.145544
7 1 43.865799 42.5234986 43.4318009 0.0145016 0.0290347 -0.0201355
8 1 48.0882988 57.7090988 38.9151994 0.0065408 -0.020396 0.0080163
9 1 50.4672013 52.2817001 43.4627991 0.0498904 0.0621054 -0.0916858
10 1 47.655201 53.8244019 40.8367005 0.0518521 8.4609099e-04 0.0334746
11 1 45.2319985 51.1847992 41.8268013 0.0123628 -0.0222384 0.0285864
12 1 45.9443016 44.9291 40.1371994 -0.0020849 -0.0795436 -0.0209105
13 1 53.2859001 53.8535004 45.6682015 0.0049013 -0.0150794 0.0357522
14 1 49.7986985 43.8367005 45.2825012 -0.0465714 0.0101903 -0.0269091
15 1 40.8037987 52.9388008 40.1781998 0.0150565 -0.0031382 0.016344
16 1 45.8170014 51.7347985 48.3712998 -0.0973944 0.0070073 -0.0197726
17 1 50.2144013 55.6817017 48.5798989 -0.0015651 0.0240502 -0.0038978
18 1 45.8774986 47.1445999 45.4115982 0.0203003 0.0406187 0.038793
19 1 58.2238007 58.6946984 46.1217995 7.3559103e-05 -0.0012446 9.4328003e-04
20 1 48.0038986 50.1579018 38.4515991 -7.3155098e-04 0.0061558 0.0200792
21 1 50.010601 52.1562004 47.9982986 8.5966206e-04 -0.0981691 0.0437047
22 1 53.9208984 50.9210014 43.4490013 -0.0037567 -0.0035869 0.0086478
23 1 48.1464005 55.6843987 44.7542992 0.0074763 0.0915787 -0.0065688
24 1 48.0345993 50.4510002 44.8913994 -0.0525633 -0.142353 0.0716581
25 1 49.8409996 54.0195999 37.7372017 0.003999 -0.0046655 0.0143772
26 1 48.1147003 46.948101 42.1932983 0.0704087 0.0950869 0.004185
27 1 52.9513016 52.4874993 51.8731004 -0.0057729 -0.0401127 0.0233256
28 1 49.8572006 48.0572014 52.9082986 0.0018346 0.0025773 -0.0076789
29 1 55.4640007 51.8283997 49.2557984 0.0841759 -0.0263737 0.0073399
30 1 52.3418007 45.6208992 42.2290001 -0.0097952 0.0547958 0.0203465
31 1 44.7663002 54.7939987 45.9257012 0.0071478 -0.105209 0.0432121
32 1 44.8305016 58.2476998 45.5666008 0.0173648 0.0675368 -0.0086991
33 2 47.7377014 49.6374016 48.0756989 0.0790787 -0.0491629 -0.0290958
34 2 47.1413994 46.396801 48.7117996 7.6852098e-04 0.0026515 -0.0166533
35 2 47.6128998 53.9099008 47.7294998 0.0098805 0.0799464 -0.0330639
36 2 47.3410988 45.942402 55.845501 0.0028623 0.0023705 -0.0033943
37 2 45.6991005 41.5121994 40.6749001 -0.0320302 0.0602816 -0.0380088
38 2 46.9305992 53.0970993 44.4183006 -0.0404536 -0.0172371 -0.0379426
39 2 51.3754006 49.1655998 42.5797005 -0.0924202 -0.0173804 0.183578
40 2 41.9982986 48.0732994 46.1022987 9.0897102e-04 0.0265509 0.0072196
41 2 54.7891999 48.1459007 42.5017014 -0.0230845 -0.01782 0.0021215
42 2 47.7406998 57.7438011 47.2256012 -0.0026549 -0.0217657 -0.0088521
43 2 48.4099999 50.2677994 41.5200997 -0.0279577 0.0023627 0.0342273
44 2 44.9432984 50.539299 45.1833 0.0014541 -0.0103406 0.0010944
45 2 58.6184998 44.2988014 51.8821984 -3.6329601e-04 2.3416e-04 1.68996e-04
46 2 43.2797012 45.6021996 44.6917992 0.0163536 -0.032934 -0.0307304
47 2 60.8618012 55.9458008 49.9875984 -8.2869702e-04 4.5815001e-04 -9.0625401e-04
48 2 51.3602982 50.5066986 45.7345009 -0.0859223 0.0724278 0.0046892
49 2 40.1986008 51.200901 43.0363998 0.0080128 0.0057569 -0.0096865
50 2 50.2811012 54.0248985 45.8227005 0.0284681 0.0343713 0.0032414
51 2 46.4678993 44.9201012 43.4762993 -0.0386267 -0.0616603 -0.0031997
52 2 54.1715012 46.857399 54.7019997 -0.0023787 0.0010125 -0.0017396
53 2 47.4243012 52.3786011 50.876999 0.0201395 0.0012743 -0.0011498
54 2 50.7877007 55.3628006 40.5508995 -0.0223409 -0.0142432 -0.0017945
55 2 51.607399 55.1063004 51.6018982 -0.0243038 0.0334614 -0.0206737
56 2 49.3827019 47.4168015 45.4887009 -0.0103483 0.0052149 -0.0119839
57 2 52.9420014 53.1669998 48.9005014 -0.0877064 0.0419172 -0.0427625
58 2 52.3103981 45.1682015 46.0660019 0.0266972 -0.0411787 0.019894
59 2 51.1353989 51.6912003 40.6156998 0.0012518 0.0345812 -0.0435665
60 2 54.1230011 50.4644013 46.9547006 0.0145588 -0.0132972 -0.0164414
61 2 52.4169006 42.7064018 41.5714989 -0.0023273 -0.0263607 -0.0026705
62 2 44.7741013 53.6852989 40.0066986 -0.0332963 0.0036223 0.0034796
63 2 41.6757012 43.4626007 40.8857002 0.01709 4.7659502e-04 0.0115624
64 2 45.8707008 47.9429016 39.5649987 0.0194732 0.0242735 0.0081011
