ITEM: TIMESTEP
120000
ITEM: NUMBER OF ATOMS
64
ITEM: BOX BOUNDS pp pp pp
0.0 100.0
0.0 100.0
0.0 100.0
ITEM: ATOMS id type x y z fx fy fz
1 1 50.7808991 62.4034996 55.1125984 4.53857e-05 -2.2706699e-04 -8.7821102e-05
2 1 39.5980988 48.5994988 45.5460015 0.0048993 0.0068501 0.0034983
3 1 51.2123985 52.7220993 50.0121002 8.9453602e-04 0.065543 -0.0610481
4 1 53.0189018 51.4388008 41.8616982 -0.0293273 0.0089856 -0.0680238
5 1 39.0349998 42.5937996 47.9898988 0.0120307 0.013155 -0.0059752
6 1 45.2181015 46.2583008 42.0791016 0.0138751 0.0103668 0.0032775
7 1 51.4734993 56.7655983 48.2678986 -0.0154892 0.0113217 0.0298046
8 1 54.9757004 55.9665986 49.7961006 -0.0018229 0.0214353 0.0222245
9 1 48.3597984 46.1464996 51.7075005 0.0016046 0.0057973 0.0010535
10 1 45.3857002 51.6688996 44.7610016 -0.0138396 -0.0562887 0.0013465
11 1 46.3176003 51.8824006 49.2312012 0.0367197 0.0520941 -0.0391695
12 1 48.0485001 54.9672012 50.9700012 9.7147703e-04 0.016627 0.0444083
13 1 51.2192001 54.0565987 43.6813011 -0.0181781 0.0123851 0.0182693
14 1 45.7915001 48.5172005 50.1114006 0.0423597 0.0302095 0.0784453
15 1 43.1459999 44.2336998 47.5400009 -0.0350057 -0.0576114 -0.122889
16 1 48.8706018 52.2453995 45.9934006 -0.0246936 0.0295988 -0.118823
17 1 52.1082993 47.1192017 45.1483002 -0.0176811 -0.0071505 -0.0541747
18 1 49.8338013 52.3483009 53.3787995 -0.0486249 -0.0044677 -0.0028289
19 1 49.2378998 47.6030998 48.2817993 0.0018076 0.0248427 -0.0087698
20 1 48.2246018 56.8739014 46.0155983 0.0053753 -0.0357799 0.0125502
21 1 46.7038994 49.8207016 53.4230004 0.0086418 0.004437 0.0131834
22 1 57.7599983 52.8235016 48.4919014 0.0029527 -0.0051217 0.0022486
23 1 54.0077019 55.2854996 45.8753014 0.028103 9.2399998e-04 0.0152305
24 1 44.3541985 47.8622018 45.8604012 -0.0495954 0.0631356 -0.112934
25 1 41.9544984 47.358799 48.6397019 -0.007692 0.0597584 0.0226977
26 1 44.8837014 44.7584992 50.4412003 0.0567666 -0.0337063 0.136239
27 1 52.9936982 51.744999 46.6398011 -0.0130293 -0.0833191 -0.0406358
28 1 46.7075997 44.0457993 45.5503006 9.9625206e-04 0.02941 0.0065
29 1 54.5658989 50.3975983 49.6893997 -0.0603842 0.0241995 -0.0333154
30 1 47.9984016 48.0421982 44.5413018 0.0058063 -0.0037673 -0.0052417
31 1 45.8465004 42.4252014 54.3121987 -6.4190302e-04 0.0111197 -3.1898701e-04
32 1 51.4137993 49.3423004 51.1248016 -0.0382886 -0.052703 0.0168255
33 2 45.5189018 54.1239014 46.4342003 0.0210227 0.0194371 0.0307726
34 2 54.7984009 53.3647995 48.4602013 -0.0322749 -0.0338079 -0.0147381
35 2 52.036499 56.1216011 52.6829987 -0.0240087 0.0253676 -0.0025144
36 2 54.1943016 50.0929985 44.0915985 0.0172035 -0.0426741 0.0818731
37 2 58.2803002 56.1837997 47.7929001 -0.0152079 -0.0159397 0.0073716
38 2 46.7850991 49.1766014 47.0984001 0.0125575 0.0491749 0.0254779
39 2 50.5587006 49.8666 44.6001015 0.0130056 0.0156198 0.0145759
40 2 40.1948013 45.6226998 45.8233986 0.0231916 -0.0191495 0.0196789
41 2 43.6764984 49.4608994 52.1824989 0.0117756 0.0029014 -0.0040657
42 2 49.6660004 50.7867012 48.2356987 0.0592948 -0.0768857 0.0583878
43 2 52.4780007 48.5705986 47.6257019 -3.6183701e-04 0.0614058 0.0700802
44 2 43.9592018 45.0391998 44.5564003 -0.0168011 -0.0022535 0.0244757
45 2 50.5265007 52.9230004 40.7988014 -0.0049597 -5.3653698e-04 0.0032721
46 2 47.9231988 45.8875008 40.4692993 -0.001259 0.003212 0.0066408
47 2 56.1253014 49.7426987 46.8349991 -0.0156484 0.0183168 0.0208898
48 2 57.3251 50.1593018 50.3792992 0.0844941 0.0035971 0.0115699
49 2 48.4898987 54.1254005 48.2216988 -0.0171037 0.008624 -0.0050485
50 2 48.4627991 50.2410011 50.9578018 -0.021012 -0.0031226 0.0306751
51 2 51.2980995 49.3471985 40.0046997 0.0030644 0.0092275 0.0116012
52 2 42.0807991 50.4166985 45.9191018 0.0196511 -0.0084098 -0.0099106
53 2 49.7011986 48.3162003 53.6996994 -0.0087958 0.0159483 -0.0191335
54 2 48.6529999 43.2383003 49.6043015 0.002506 0.0204689 0.01369
55 2 45.1907005 46.5723 48.2075005 0.0065136 -0.129224 -0.0465344
56 2 52.5161019 51.0421982 53.5947991 0.0156806 -0.0249967 -0.0072055
57 2 53.5428009 53.5817986 51.8502998 0.0315367 -0.0265431 -0.0326219
58 2 51.3134003 54.1297989 46.9157982 -0.0122551 -0.0060389 -0.0177802
59 2 46.3370018 41.1888008 51.5391999 2.72612e-04 0.0088835 -0.0172874
60 2 45.8300019 42.6974983 48.1795006 -0.0210288 0.0037814 0.0060356
61 2 60.535801 53.8443986 52.4698982 -0.0026313 -8.0718498e-04 -0.0028431
62 2 43.7112999 50.1759987 48.6850014 -1.24637e-04 -0.0083212 -0.0080887
63 2 44.8143006 55.410099 51.0196991 0.0089437 -4.6822e-04 -0.0096899
64 2 46.3064995 52.7709999 52.2467995 0.0132026 -0.0288404 0.0068279
