ITEM: TIMESTEP
166000
ITEM: NUMBER OF ATOMS
64
ITEM: BOX BOUNDS pp pp pp
0.0 100.0
0.0 100.0
0.0 100.0
ITEM: ATOMS id type x y z fx fy fz
1 1 50.2019005 44.3368988 43.0241013 -0.0049404 0.0089388 0.023228
2 1 45.3699989 52.6063004 39.2722016 0.0150924 -0.0141363 0.0160238
3 1 55.8403016 45.2797012 44.7639008 -0.0165474 0.0012065 0.0154092
4 1 49.8815994 51.5143013 43.4403 0.0105676 -0.0246646 -0.0317238
5 1 52.9571992 48.5486985 43.3526001 -0.0138587 -0.0203271 0.0136594
6 1 48.8012009 55.3202019 44.3611984 0.0121 0.0241803 -0.0128158
7 1 53.8149987 41.8974992 45.1493988 0.0791607 0.0458857 0.0328175
8 1 46.8919984 45.8599014 45.1687012 -0.0024796 0.0387737 -0.0649428
9 1 48.037899 54.7659989 48.3114014 -0.0410458 0.132032 -0.0785587
10 1 48.0974999 48.4399987 41.4146004 0.004129 0.0205359 0.0266465
11 1 51.1156006 42.9355012 48.5136986 0.0054046 0.0017408 -0.0089734
12 1 51.2369995 53.6091995 37.860199 -0.0048624 -0.0036971 0.0136407
13 1 42.8949014 56.7801018 51.1399994 -0.0037337 0.004319 -0.0146714
14 1 54.5000992 57.846199 41.1973991 -0.0260085 0.0187415 -0.0147533
15 1 44.2024002 48.9972 43.9812012 0.0259436 0.0111983 -3.3503101e-04
16 1 46.014801 44.1114006 48.1748009 -8.2688303e-04 -0.0338705 0.0224713
17 1 45.7251015 51.5786019 49.0700989 0.0620041 -0.112621 0.019032
18 1 50.2151985 46.1377983 46.776001 0.0197582 0.0156948 -0.0113415
19 1 45.6166001 60.5792008 49.0429993 0.011332 -0.024225 0.0102936
20 1 47.4808007 41.1198998 43.5312004 0.0390667 -0.0120704 0.0197586
21 1 50.7263985 51.8953018 46.9687004 -0.0091617 0.0746418 0.0194173
22 1 50.4523011 58.6964989 50.1828003 0.007657 -0.0404445 0.0493318
23 1 45.2355003 56.9398004 46.3897019 0.0167 -0.0131336 0.0191915
24 1 47.5686989 49.8419 46.175499 0.0636459 -0.0548777 1.90495e-04
25 1 49.2877998 60.5686989 47.4679985 -0.0371738 0.0167331 -0.0580042
26 1 46.375 52.4977989 43.0694008 -0.0270152 -0.0287016 0.0039983
27 1 48.6996994 48.7066002 50.2452011 -0.0258357 0.0257513 -0.0132689
28 1 55.2089005 42.848999 49.1404991 -0.0210492 0.0048625 -0.0033041
29 1 46.6898995 56.9406014 51.2234993 -3.1800098e-04 4.9705702e-04 0.0081749
30 1 52.2783013 54.7066994 42.3973007 -0.005856 -0.0052586 0.0024217
31 1 44.5709992 47.7008019 47.6507988 -0.0232772 0.0190589 -0.0506761
32 1 43.1050987 53.9208984 45.5103989 0.0324376 -0.0176225 0.0036111
33 2 53.2237015 48.1645012 46.4533005 -4.6059799e-04 -0.0155011 -0.0074332
34 2 52.9785004 44.7345009 46.3571015 -3.84631e-05 -0.0136443 0.0118612
35 2 45.5569992 47.7668 50.4065018 0.0199483 0.0130777 0.0522816
36 2 45.1635017 49.7826996 40.9898988 0.0158984 0.0153354 0.0126685
37 2 56.5954018 41.1692009 46.9253006 -0.0105122 0.0039137 -0.0114417
38 2 45.9095994 43.6142006 43.2622986 -0.0140929 0.0331951 2.89063e-05
39 2 51.3800011 55.5299988 47.088501 -0.0282348 -0.0127156 -0.0045607
40 2 51.0135994 46.8279 49.7369004 0.0179154 -0.0582538 0.0101363
41 2 56.3867989 55.9669992 42.5143013 0.0169245 -0.0244577 0.0157625
42 2 45.0415001 51.3036995 46.0615006 -0.0598593 0.0233804 -0.0181485
43 2 51.1016007 49.5415001 41.0775986 -0.0147133 0.004884 0.0094618
44 2 45.8008003 40.6643982 48.5736008 0.0024789 0.0168703 -0.0052333
45 2 45.8468018 60.6152001 52.6223984 0.0013711 -0.0103367 -0.0180099
46 2 52.1601982 49.773201 50.6819992 -0.0129794 0.0055395 -0.0068063
47 2 43.6613999 43.6204987 45.9626008 0.0194981 0.0090739 0.0055063
48 2 47.7715988 52.9972 45.8227005 0.0049638 -0.0491657 0.0211592
49 2 50.2487984 42.2080002 51.6390991 0.0066699 0.0041073 -0.012654
50 2 44.6395989 54.1446991 48.6841011 -0.0322446 0.126484 -0.0396842
51 2 49.9431992 47.8746986 44.1814995 -0.0139092 0.006849 -0.0017947
52 2 50.4544983 49.1007004 47.7384987 -0.0426379 -0.0159566 -0.0221561
53 2 48.7626992 52.4609986 49.706501 0.0348723 -0.134131 0.0509667
54 2 48.5127983 51.6380005 40.3147011 -0.0150225 -0.0024431 0.0221721
55 2 52.355999 61.3305016 51.3955002 -0.0090612 -0.0105612 -0.0063434
56 2 53.9384996 41.6619988 52.3997994 -0.0010916 0.0051871 -0.0136357
57 2 44.7729988 54.5047989 52.0127983 0.0135326 -0.0067536 -0.0017819
58 2 53.2244988 45.1139984 43.1220017 -0.00811 0.0089378 -0.0026275
59 2 45.4584999 55.4333992 43.3350983 0.0060264 0.0032371 0.0281027
60 2 47.9127998 58.0825005 45.4206009 0.0145085 0.0121878 -0.0140537
61 2 47.5698014 58.0396996 48.5477982 0.0055239 0.0024026 0.0032171
62 2 47.4758988 46.8524018 48.0102005 0.0320293 0.0139366 -0.0080138
63 2 51.1665001 41.0353012 44.4995003 -0.0943788 -0.0070781 -0.0202734
64 2 48.7509995 43.4574013 45.6310997 0.0041763 -0.0067426 0.0153788
