ITEM: TIMESTEP
104000
ITEM: NUMBER OF ATOMS
64
ITEM: BOX BOUNDS pp pp pp
0.0 100.0
0.0 100.0
0.0 100.0
ITEM: ATOMS id type x y z fx fy fz
1 1 40.4067001 45.459301 58.6968994 9.6337204e-05 2.67031e-05 2.7333901e-06
2 1 44.5502014 44.9818002 48.7666016 -2.7446201e-04 0.0346052 -0.0075097
3 1 48.1432991 52.8824998 49.5140991 0.0849004 -0.013168 0.0320289
4 1 52.5998993 51.3628006 45.5163994 -0.0113789 0.0026066 -0.0631442
5 1 43.3474007 43.4294014 44.7795983 0.0150608 7.0601602e-04 0.0209639
6 1 43.9777986 56.7439003 46.5079003 0.0134566 0.0112963 0.0062735
7 1 45.8258019 50.3554001 48.9556008 -0.111377 -0.0538748 0.0356373
8 1 47.9398994 55.987301 47.8983994 -0.0313437 0.0647782 -0.0267451
9 1 50.1535988 49.6934014 51.5290985 0.0041272 0.0577909 0.0561268
10 1 45.3837013 49.4231987 41.9599 0.015886 -0.0029393 0.0157385
11 1 48.0153999 47.2765999 54.6815987 9.2744599e-04 0.0250696 -0.0139471
12 1 48.1651001 53.0632019 54.7260018 0.0315756 -0.0272104 0.0561797
13 1 41.3036995 60.1529007 44.4399987 0.0038791 -0.0052891 0.002509
14 1 51.8796998 49.3577004 48.3805008 0.022893 -0.124364 -0.0100373
15 1 47.5368004 42.8606988 49.1388016 0.0218225 -0.0069125 -0.0144876
16 1 43.6287995 51.8170014 44.4048996 -0.0033451 0.0031311 0.018871
17 1 50.2230988 46.3190994 43.0747986 -0.0206393 -0.0083695 0.0131174
18 1 52.1314011 52.1987991 54.7655983 -0.0216531 -0.0095237 -0.0137863
19 1 55.7064018 51.5116997 50.8974 -0.010886 -0.0195821 -0.0132944
20 1 47.918499 47.1343002 47.1222992 0.0192088 -0.0098653 -0.0222135
21 1 51.5923004 43.0225983 48.4589005 -6.5497098e-04 -0.0249087 0.0321021
22 1 50.4408989 55.7636986 53.6388016 0.011077 -0.0022007 -0.0241734
23 1 41.8650018 53.6273995 47.4351998 0.0236483 -0.0082206 0.004116
24 1 52.3431015 51.2579994 41.6203995 -0.0039563 0.0053441 0.0150692
25 1 47.8616982 46.3474007 50.6646004 0.0184666 3.1780801e-04 0.0537573
26 1 53.2980995 45.8068009 50.2210999 -0.0248005 0.0050993 -0.0166089
27 1 49.0489998 50.5699005 45.9557 0.0411953 -0.0072966 0.0221845
28 1 53.2251015 46.3974991 46.4365006 0.0177092 -0.0329607 0.0221841
29 1 51.4822998 54.8139 47.990799 0.0715153 0.0159829 0.0015789
30 1 47.0914001 53.2151985 43.9459 -0.0018739 0.0162172 0.0262236
31 1 56.7317009 48.4438019 48.2592011 -0.0317514 0.0042112 0.013848
32 1 55.1946983 47.1674004 52.9224014 0.0361388 0.0183282 0.0388862
33 2 46.1608009 50.9225998 46.0840988 -0.043683 0.0164403 -0.0447903
34 2 48.2980995 58.4146004 45.9009018 -0.0039802 -0.0102601 3.3847499e-04
35 2 46.8162995 49.6948014 52.6148987 0.034559 0.0066955 -0.003259
36 2 53.9975014 51.8804016 48.0210991 0.0887143 -0.0039855 0.0386032
37 2 46.7111016 53.2915001 52.2583008 -0.0345858 1.86931e-04 -0.0731128
38 2 47.2508011 47.6207009 44.0425987 0.0115945 0.0093157 0.0054477
39 2 51.3768997 48.2318993 45.085701 -0.0337855 0.0689556 0.0185361
40 2 47.1551018 43.8263016 46.0808983 -0.0083053 0.015779 0.0163758
41 2 50.9533998 43.5859986 51.5998993 6.3558402e-04 0.018117 -0.020409
42 2 48.6133003 49.5517006 49.1338997 0.0148432 -0.0187008 -0.0840078
43 2 51.1884995 52.042099 48.9926988 -0.112937 0.0527905 0.0546476
44 2 46.8619004 56.3661003 43.2363014 0.0018401 -0.007817 0.0136616
45 2 58.3628998 57.9490014 47.4530983 -2.3384302e-04 -2.2961099e-04 3.31937e-05
46 2 53.2829018 40.2282982 41.8913002 -2.1145601e-04 4.4130902e-04 3.3483899e-04
47 2 45.5079994 54.0998001 47.1348 0.0066619 -0.0192234 -0.0049641
48 2 43.9002 54.931099 44.0671005 0.0079253 -0.0201199 -0.003988
49 2 40.5317993 48.781601 48.0983009 0.0049072 0.0028507 2.4106701e-04
50 2 50.4761009 46.6587982 49.3296013 0.0283881 0.0153644 -0.0242735
51 2 52.7587013 53.892601 43.8260002 -0.007241 0.0017201 -0.0074339
52 2 44.2184982 41.9994012 48.0060005 0.0115003 0.0042432 -0.0102175
53 2 50.8582994 47.645401 53.4416008 0.0211262 -0.0474397 0.0316205
54 2 54.0085983 48.8708992 50.7411995 -0.0185272 0.0124136 -0.0324195
55 2 50.4227982 44.878399 46.5185013 -0.0296505 0.0506563 -0.040796
56 2 50.2044983 52.7356987 52.2887001 -0.0104999 0.0059045 -0.0044971
57 2 52.4924011 60.0266991 53.8824998 -0.0015394 -0.0032363 -4.3234902e-04
58 2 49.9355012 55.6716004 50.4309006 -0.0235971 -0.0112964 0.0160786
59 2 57.8465004 48.6277008 51.1991005 -0.0234701 0.0044104 0.0039308
60 2 47.9249992 47.5432015 58.9101982 8.7980795e-04 0.0013038 -0.0084422
61 2 49.3970986 53.9628984 46.1374016 -0.0427605 -0.0509498 -0.0386436
62 2 45.2150002 47.6334 50.7047997 -0.0395227 0.0123163 -0.0240105
63 2 42.9263 52.2459984 50.3093987 0.0122041 -0.0015986 -0.0171371
64 2 49.2131004 50.2882004 55.5890999 0.0091014 -0.0138734 -0.0184665
