ITEM: TIMESTEP
184000
ITEM: NUMBER OF ATOMS
64
ITEM: BOX BOUNDS pp pp pp
0.0 100.0
0.0 100.0
0.0 100.0
ITEM: ATOMS id type x y z fx fy fz
1 1 48.1679993 42.3143997 43.8782006 -0.0207071 -0.0066068 0.0077338
2 1 41.7764015 57.0079994 43.3403015 0.0083481 0.0018992 0.0089766
3 1 51.2095985 43.8162995 48.7145005 0.0176416 0.0099699 -0.003198
4 1 45.2298012 47.2677002 42.1241989 0.0174231 0.027272 0.0167593
5 1 52.7569008 48.4040985 45.8437996 -0.0334176 -0.0407744 0.0589543
6 1 52.1526985 50.9765016 40.4762001 -0.033038 0.0051246 -0.0903246
7 1 44.5113983 43.7461014 42.1613998 -0.0034651 -0.0397738 0.0048078
8 1 45.4808998 56.4370995 41.4914017 -0.0333267 0.0043896 0.010627
9 1 51.8282013 52.6184998 43.4603005 -0.0336282 0.0922671 0.0946423
10 1 47.9613992 53.9779016 40.7713013 0.0429158 -0.059406 0.0597642
11 1 43.8837014 50.7691994 42.7285004 0.0069346 -0.0059579 0.0420135
12 1 47.901001 44.3577004 40.783001 -0.0094617 0.0147208 -0.0423217
13 1 52.3941994 55.8942986 45.2995987 -0.0105589 -0.0152175 0.0182509
14 1 50.7994004 44.8274994 43.0241013 0.0318278 0.0214107 0.0198407
15 1 42.1185989 54.3418999 40.7167015 0.0188574 -0.0189608 -0.0019911
16 1 45.1422005 50.1279984 49.5483017 0.012913 0.0164385 -0.0195568
17 1 49.4390984 55.5438004 48.3488999 -0.0397266 0.0227079 -0.0783763
18 1 46.7823982 46.8112984 46.0996017 0.0627032 -0.0397058 0.0877824
19 1 56.4919014 54.1613998 45.5281983 -0.0115785 -0.0020352 -0.0106239
20 1 46.8424988 50.5735016 40.2728005 -0.0061925 -0.052353 -0.0180236
21 1 48.7452011 51.8666 48.8130989 -0.0273189 -0.0034097 0.0275922
22 1 54.5774994 50.035099 43.2770996 0.0734169 0.0195733 -0.0316143
23 1 48.2588005 55.4473992 44.4553986 -0.0163612 0.0285824 -0.0354086
24 1 49.0908012 50.4518013 44.9215012 0.0105632 -0.011933 0.052092
25 1 50.9449998 53.6409989 37.8101998 -0.0131927 0.0076087 0.0239645
26 1 48.8777008 48.1096001 42.0861015 0.0397757 -0.0259696 0.023896
27 1 51.0652008 54.2360001 51.1352997 0.057027 -0.0508643 0.0350667
28 1 53.0999985 47.0680008 52.5746002 -0.0050664 0.0070895 -0.0078455
29 1 55.0597 52.8796998 48.7845001 -0.0248395 0.0048373 0.0108572
30 1 51.9318008 45.3760986 39.3871994 -0.0104013 0.0302738 0.0028295
31 1 44.6276016 54.7699013 45.5019989 -0.0052178 0.0112196 -0.0279666
32 1 45.0914993 58.581501 44.5900002 0.0096522 -0.0040862 0.0140009
33 2 49.8016014 47.3914986 48.2071991 -0.0036857 -0.0033876 0.0135394
34 2 48.2300987 44.1629982 48.8387985 -0.0264124 0.0126359 -0.0086619
35 2 46.0914993 52.8095017 47.2168999 0.0050451 -0.0291706 0.0282108
36 2 46.8235016 45.9842988 55.6605988 2.4143999e-04 9.2097101e-05 -3.93303e-04
37 2 46.7378998 41.0094986 40.9842988 0.0032492 0.0280792 0.0143562
38 2 46.4980011 52.6057015 43.851799 0.008557 -6.1423402e-04 -0.0104248
39 2 51.6561013 49.6617012 43.3451996 -0.0722191 -0.0237164 0.0178506
40 2 43.8391 46.6803017 46.3016014 -0.0348802 -0.0027929 -0.0053795
41 2 52.9571 48.2070999 41.0096016 0.0249588 -0.0767671 -0.0188062
42 2 46.5363999 56.8905984 48.1827011 0.0013876 -0.0161962 -0.0144169
43 2 49.2363014 51.2621994 42.0102005 0.0098147 0.0284329 -0.0155796
44 2 44.4859009 49.9583016 46.4361 -0.028493 0.0194545 0.0285547
45 2 61.5629006 44.2650986 54.3760986 0.0 0.0 0.0
46 2 41.1922989 41.0084 44.1739998 0.0027731 0.0021375 -0.0014078
47 2 59.7120018 59.6306992 50.1959 -7.4093199e-05 -1.16985e-04 -6.6353903e-05
48 2 51.1677017 50.479599 47.7178993 0.0165468 -0.018693 -0.0294894
49 2 41.2052994 49.3768005 39.8678018 0.0089403 0.0033813 0.0064459
50 2 49.0130005 53.2020989 46.1374016 0.0548603 -0.0077166 0.0116927
51 2 47.7391014 45.5103989 43.646801 -0.0023781 -0.0168947 -0.0500367
52 2 51.8199997 50.6435013 51.3709984 -0.0039895 0.0082446 -0.0124154
53 2 45.7527008 53.9224014 50.3227997 0.0018596 -0.0090522 -0.0136756
54 2 48.4756012 55.8781014 38.6269989 0.0164527 0.0279666 -0.0382615
55 2 48.2691002 54.5220986 52.3058014 -0.0034248 0.0013211 0.0012078
56 2 50.1629982 47.1200981 45.1082001 -0.0357456 0.0046214 -0.0392611
57 2 52.0359001 53.6407013 47.9197998 -0.0093455 0.0116335 0.0010495
58 2 52.9339982 45.1707001 46.5255013 -0.0079877 0.0186618 -0.0138443
59 2 51.8470994 54.482399 40.863701 -0.0162692 -0.021544 -0.0016417
60 2 54.6744004 50.2601013 47.2247009 0.0072928 0.0114929 -0.0043944
61 2 52.7265015 42.7762985 40.7532006 -0.0057558 -0.0049802 0.016554
62 2 44.9439012 52.7835999 40.7933998 -0.0087985 0.0659461 -0.0073845
63 2 45.0157013 45.7477989 39.4208985 0.0113344 -0.0124318 0.0150287
64 2 46.4914017 49.0555 44.3759003 0.0136446 0.0516425 -0.12215
