ITEM: TIMESTEP
154000
ITEM: NUMBER OF ATOMS
64
ITEM: BOX BOUNDS pp pp pp
0.0 100.0
0.0 100.0
0.0 100.0
ITEM: ATOMS id type x y z fx fy fz
1 1 55.0052986 48.2806015 43.6337013 -0.0188324 -0.0204384 0.0101288
2 1 49.0973015 47.4645996 41.4221993 0.0170991 0.0164877 -0.0046335
3 1 55.2877998 48.3456993 49.0307999 -0.029007 0.0510016 0.0105589
4 1 47.2094994 52.9799996 45.5199013 -0.0809832 0.0807131 0.0449495
5 1 51.0788002 51.7178993 42.3693009 -0.0397155 0.0311998 -0.0140168
6 1 45.6940003 56.4723015 47.0065994 -0.0216128 -0.0326797 0.0192539
7 1 55.6767006 44.1358986 44.5281983 -0.0600667 -0.025251 0.015306
8 1 48.2476998 47.1026993 45.0149002 0.0275092 0.0121196 0.0422452
9 1 46.1161003 52.6111985 49.9155006 -0.009999 0.0445507 -0.0374321
10 1 55.7335015 44.9519006 48.1411018 0.0048475 -0.0452196 0.0049222
11 1 52.2812004 45.8857994 46.5737992 -0.0069114 0.0541445 0.0515792
12 1 46.9751016 51.5621987 42.1764984 -0.0099894 0.0655848 -0.117885
13 1 43.5451012 49.5811005 48.5428009 -0.0286371 0.0156875 0.0328834
14 1 46.7047997 56.4897003 53.3045998 0.0013717 -0.029936 -0.0135279
15 1 52.9737016 46.7266999 40.4859009 0.0139668 0.0021078 0.0173294
16 1 48.3376999 46.5918007 51.5056992 0.0087436 -0.0087299 0.0132298
17 1 45.3961983 48.4411011 43.0374985 -0.0151359 -0.010111 0.0184277
18 1 51.5892983 50.4353981 48.9840012 0.0154781 0.142144 0.0371372
19 1 42.6335984 53.523201 49.0934982 -0.0229174 -0.0142596 0.0021246
20 1 41.9189988 51.3959007 59.7985001 0.0011971 4.75107e-05 -0.002614
21 1 51.0078011 55.0147018 46.9917984 -0.0272249 -0.008387 6.7523303e-04
22 1 50.9314996 51.3736992 53.2350006 5.13132e-04 -0.0306479 -0.0097825
23 1 43.7924996 53.9341012 53.1598015 -5.1424298e-04 0.0370765 -0.0337241
24 1 47.9457016 49.9091988 47.8232994 -0.0616405 -0.0513992 -0.0294089
25 1 49.2266007 53.8451004 51.1727982 -0.0075219 0.0046698 -0.0054815
26 1 43.2282982 53.8748016 44.5196991 -0.0029934 -0.0287637 0.0106537
27 1 51.8148995 47.6483994 51.3171997 0.0327557 0.0220174 0.0124626
28 1 50.8759004 43.1085014 42.7582016 -0.0250962 -0.0167206 -0.156917
29 1 44.0153999 50.6040001 54.5503006 0.0086195 -0.0179946 -1.06355e-04
30 1 48.5279007 56.9525986 44.7296982 0.0036018 -0.016545 -0.0164615
31 1 51.4491005 49.2659989 44.9695016 -0.0132819 0.0362462 0.0577643
32 1 45.9067994 49.4561997 51.3863983 0.0111229 -0.054947 0.0321987
33 2 52.4147987 52.8932 45.0477982 0.058187 -0.0427333 0.0171927
34 2 53.4450989 42.8946992 47.8918992 -0.0085906 0.0122156 -0.0185995
35 2 49.1845017 44.1063995 44.8722992 -0.0293875 0.0367468 0.0548667
36 2 48.8130989 54.0693016 41.179699 -7.5001102e-04 -0.0188513 0.0100874
37 2 57.6926003 45.3846016 42.9006996 0.0432106 0.0384821 -0.0427696
38 2 50.5042 45.1183014 39.7501984 -0.0119052 -0.0103284 0.0154677
39 2 47.9668008 54.5736008 48.1498985 0.0048436 -0.0128947 1.842e-04
40 2 53.899601 50.2668991 47.0035019 -0.0079311 -0.0082653 -0.0260172
41 2 50.1366005 56.4259987 49.8949014 -0.0074931 0.0351137 -0.0144924
42 2 46.978199 47.1828003 48.9286996 -0.0150541 0.0206265 -0.0281211
43 2 49.776001 54.1007996 44.3778 -0.0568031 0.0275519 -0.0545798
44 2 55.6637993 52.6491013 57.2895012 -3.41539e-04 -1.06487e-04 -3.2168801e-04
45 2 42.5993996 52.0628014 41.6318016 0.0106755 0.0047095 0.0140772
46 2 51.8709984 53.8227997 49.5772019 0.0223794 -0.0564702 0.0171648
47 2 52.6880989 43.6997986 44.8148003 0.0786604 -0.0440936 0.0185802
48 2 45.1194 49.9818994 46.0863991 0.0488206 0.013709 -0.0437269
49 2 50.8702012 45.3428993 49.6637993 -0.0089443 -0.0174431 -0.0249241
50 2 43.4808998 51.4314003 51.3802986 0.0059552 -0.0027121 -0.0143422
51 2 48.1876984 50.4398995 44.4868012 0.0463221 -0.142377 0.0194785
52 2 49.6945 51.872799 46.6492005 0.126621 0.0439978 0.058687
53 2 48.864399 50.0115013 50.6249008 0.0285366 0.0052037 0.041436
54 2 45.4556999 55.7173004 43.7064018 0.0420153 0.0082059 0.0140002
55 2 40.3890991 50.7167015 48.7293015 0.0243658 0.0085882 0.0042912
56 2 53.4793015 42.5084992 51.0661011 -4.4418903e-04 0.0051786 0.0129654
57 2 46.5709992 53.917099 56.3168984 -0.0063736 0.0046648 -0.0057631
58 2 49.0545998 50.6577988 39.4029999 -0.0012778 -9.3043394e-04 0.0299328
59 2 44.7647019 55.4168015 50.3008003 0.015785 -0.0022982 0.0105807
60 2 40.7924996 53.8069 51.875702 0.0214718 -0.0051633 -0.0088948
61 2 46.773201 52.9780998 53.178299 -1.5087699e-04 -0.0047554 -0.0340164
62 2 50.6305008 48.1086998 47.7234001 -0.0708553 -0.0732718 -0.0363987
63 2 54.2294998 43.8818016 41.4127998 -0.0116481 0.012004 0.0208331
64 2 51.6599007 46.8117981 43.2929993 -0.0046442 -0.0380723 0.0013026
