ITEM: TIMESTEP
178000
ITEM: NUMBER OF ATOMS
64
ITEM: BOX BOUNDS pp pp pp
0.0 100.0
0.0 100.0
0.0 100.0
ITEM: ATOMS id type x y z fx fy fz
1 1 52.5466995 46.7030983 46.6747017 -0.0168513 -0.0115339 -0.0464055
2 1 42.0918007 52.8265 45.2985993 0.0080209 0.0063314 -0.0188976
3 1 52.3672981 45.9770012 50.1781006 0.0137578 -0.0288658 0.03659
4 1 48.1785011 46.9477006 40.6116982 0.0224913 -0.0291773 0.0343973
5 1 51.993 50.0004005 45.0755997 0.0022018 -0.0254087 -0.0370568
6 1 51.8366013 49.4538002 38.2542992 -0.0120731 0.008706 0.0261277
7 1 51.4617996 41.9929008 48.1758003 -0.0075089 0.0278605 -0.0173806
8 1 45.6920014 51.9286004 44.035099 -0.0394984 -0.0519049 -0.0165825
9 1 51.1334 53.2578011 43.8423996 -0.0087245 0.036742 -0.0185295
10 1 46.8185005 53.7625008 41.0405998 0.0281624 -0.0231775 0.0083947
11 1 48.2117996 44.5980988 44.7803993 0.0139322 0.0073114 0.0177833
12 1 48.2862015 52.0421982 37.6370011 0.0063605 -0.0150526 0.0356119
13 1 50.9850998 58.0475998 46.6010018 0.006783 -0.0281581 -0.0098801
14 1 52.8997002 47.917099 41.8586006 -0.0155714 -0.0311963 0.0131882
15 1 42.946602 54.1804009 41.547699 0.0113847 -0.0086645 0.0214027
16 1 44.5323982 46.0334015 49.6839981 0.020762 0.0157314 -0.0176087
17 1 47.4991989 53.9533006 46.4715004 -0.0101579 0.0614867 -0.0444755
18 1 49.6763993 48.0411987 48.8569984 -0.0467128 0.0814587 -0.0021637
19 1 54.598301 55.9669 45.9328004 -0.0241351 -0.0047934 -0.0170023
20 1 44.8679008 47.4009018 42.0926018 -0.0720422 0.0193324 -0.0391672
21 1 48.7851982 51.8946 48.9189988 0.0805986 -0.0129949 0.0787082
22 1 55.0313988 51.2452011 41.9073982 -0.0263073 0.0112541 0.0152486
23 1 50.1842995 56.3497009 41.3754997 -0.0078632 -0.0177784 0.0121174
24 1 47.104599 49.3064003 46.3558998 -0.0357674 -0.0029391 0.044834
25 1 53.9497986 55.2186012 41.4894982 -0.0053822 -0.0164651 0.0191958
26 1 48.6819 50.1506004 43.156601 0.0477945 -0.0271661 -0.049761
27 1 47.6991005 50.9014016 53.2085991 0.0128523 0.0069589 -0.0404528
28 1 49.0372009 46.0456009 52.1635017 -0.0056505 0.0064769 -0.0103481
29 1 52.4510994 52.899601 47.3925018 -0.0116381 0.0276971 0.0028641
30 1 59.4570999 55.9028016 41.4402008 -0.0039515 -0.0010611 7.91322e-04
31 1 44.4842987 51.7764015 47.9508018 0.0199903 -0.0079263 -0.0016115
32 1 47.6973 57.2980995 44.5653 8.24718e-04 -0.0162734 -0.0094398
33 2 51.9399986 49.993599 48.0746002 -0.0134337 -0.0226782 0.0215707
34 2 49.9662018 45.2696991 47.9892998 0.0726001 -0.0774743 -0.0149163
35 2 46.4971009 50.2731018 49.7234993 -0.0195456 -0.0666936 0.006386
36 2 41.8897018 45.7251015 48.0463982 -0.0014216 -0.0061419 -0.0054328
37 2 50.1748009 40.3200989 45.7518006 0.0042334 0.0088572 0.0039291
38 2 43.4785996 48.6218987 48.0237999 0.0248299 0.0133922 -0.003242
39 2 51.885399 50.6781998 41.3833008 0.0025864 0.0284708 0.0209026
40 2 47.1904984 46.3386002 47.5046997 -0.0546127 0.0277307 -0.0136396
41 2 49.1633987 49.6889992 39.9751016 0.0257314 0.029552 -0.0184966
42 2 44.8998986 54.678299 44.723999 -0.0115924 0.0322023 0.0046656
43 2 46.2994995 50.4225998 40.9688988 -0.0196478 0.0202868 0.0429891
44 2 44.2164993 45.3745995 45.0819016 0.0149481 0.0104264 -0.0025988
45 2 54.990799 50.5797005 55.2697983 -6.3523703e-04 -8.9236298e-05 -5.91079e-04
46 2 47.0774002 41.6749993 45.3274994 6.6831999e-04 0.0110144 -0.0020643
47 2 42.6734009 58.4095001 48.8459016 7.6993799e-04 -0.0011823 -7.2781e-04
48 2 49.3128014 51.4617996 45.9833984 0.0227744 -0.0015276 -0.02936
49 2 46.2603989 48.2696991 38.5699005 -0.0020488 -0.0038812 -0.004208
50 2 52.3848992 57.0003014 43.5696984 -0.004414 -0.0135834 0.0199723
51 2 49.6599007 47.8805008 45.4859009 0.0381596 0.0025531 0.0206885
52 2 50.5323982 50.5416985 51.1902008 -0.0145692 -0.021307 -0.0110469
53 2 45.9325982 53.2952995 50.5582009 0.0121219 0.0035634 -0.0098305
54 2 44.9662018 55.7015991 39.7178002 -0.0132373 0.0181097 -0.0120414
55 2 49.6557007 53.6212006 51.7675019 -0.0160196 -0.0047742 -0.012564
56 2 51.9255982 43.3883019 45.0937004 -0.0150271 0.013242 0.0174287
57 2 50.3824005 55.1245003 48.3189011 -0.0114877 -0.0119568 -0.0150762
58 2 56.2126999 44.949299 47.9748002 -0.010649 0.002947 -4.2165098e-04
59 2 49.8349991 53.1523018 40.9976998 -0.005398 -1.0985401e-04 -0.0025531
60 2 54.3739014 53.0099983 44.7969017 -0.0254516 -0.0066084 -0.0146573
61 2 50.3686981 45.9403992 42.8765984 -0.0026727 0.0133982 -0.0044396
62 2 43.3577995 49.9264984 44.7612 0.0179446 0.0026085 0.0056697
63 2 46.2550011 43.9664994 41.9737016 0.0101811 0.0265613 0.0158571
64 2 46.9320984 47.2373009 44.0556984 0.0482334 0.0162814 0.0273562
