ITEM: TIMESTEP
106000
ITEM: NUMBER OF ATOMS
64
ITEM: BOX BOUNDS pp pp pp
0.0 100.0
0.0 100.0
0.0 100.0
ITEM: ATOMS id type x y z fx fy fz
1 1 40.0489998 47.9658012 60.3577995 0.0 0.0 0.0
2 1 42.0546989 47.3396988 45.3152008 0.0084912 0.0177801 0.0063113
3 1 48.8013993 52.0327988 50.7787018 -0.0012372 0.0355694 -0.0059667
4 1 52.1559982 51.5959015 45.4771004 0.0075713 -0.0467923 -0.0619815
5 1 42.4415016 43.104599 46.8395996 5.6173501e-04 -0.004868 0.0128088
6 1 45.1198006 56.1758995 43.5046005 0.0012743 -0.012258 0.0158435
7 1 45.6833992 49.9053994 48.9533998 -0.0142245 0.0250838 0.0308269
8 1 47.7657013 57.3342018 47.2075996 1.06747e-04 -0.0277913 -0.0034662
9 1 50.523201 49.0811996 51.3386994 0.04342 -0.0808608 0.0530544
10 1 46.3236008 50.2742005 43.7616005 1.6791101e-04 -0.0042196 0.0194332
11 1 48.3674011 46.9515992 54.6100006 0.0022041 0.0240863 -0.0177758
12 1 47.9833984 51.8280983 54.6829987 0.0101022 -0.0066186 -0.0170808
13 1 44.9323998 59.6492005 45.2593002 0.0042001 -0.007766 0.0045239
14 1 51.6076012 48.7616997 47.8059998 -0.0430533 -0.0340821 -0.0163871
15 1 46.9827996 43.8675004 46.9686012 -0.0200081 0.0392824 0.0036017
16 1 44.535801 52.8284989 46.4449997 0.0741333 -0.152514 -0.0466384
17 1 50.6418991 46.1764984 42.7897988 0.186058 -0.0629141 -0.0231865
18 1 54.1558991 52.9003984 54.2986984 -0.0130629 -0.019207 -0.0149749
19 1 54.7181015 50.0670013 49.4131012 -0.0154436 -0.005434 0.0249357
20 1 47.4664994 47.7034989 46.2442017 0.032797 -0.017719 0.0221848
21 1 50.1573982 42.1445999 47.0410995 0.0109243 -0.0525611 0.0284308
22 1 50.1425018 55.3899994 52.799099 -0.0016767 -0.0276681 -0.0164648
23 1 45.6817017 53.5057984 49.7430001 2.64217e-04 0.0467806 0.0324401
24 1 48.8376007 49.1459007 41.0222015 0.0259818 0.0647621 -0.0525406
25 1 47.1231995 46.8600998 50.3902016 0.0072545 -0.0043329 0.0144919
26 1 50.3204003 44.9169006 50.8269997 0.0170952 0.0131523 -0.0180582
27 1 48.5241013 52.3176003 46.9112016 -0.0063448 -0.0193444 -7.7684899e-04
28 1 52.6321984 44.8148003 47.388401 0.031287 0.0321119 0.0121161
29 1 51.492199 54.5469017 47.3334007 0.0127175 0.0700754 -8.7848606e-04
30 1 48.1487007 53.5097008 42.8726006 -0.069633 -0.0194679 -0.0394333
31 1 55.4178009 45.6982994 50.3534012 0.0067028 -0.0026002 -6.6982799e-04
32 1 53.4289017 48.3941002 54.0861015 -0.0272073 0.0075995 -0.0102651
33 2 44.6710015 49.0124016 46.3115997 -0.0154076 -0.001288 -0.0396245
34 2 53.2947998 56.6623993 46.1613007 0.00887 0.0101991 -0.0098914
35 2 47.6347008 49.6376 52.5117989 0.0235334 -0.0155642 -0.0169012
36 2 55.0077019 52.5334015 47.5014 -0.0189023 0.0015472 -0.0080841
37 2 45.3185997 52.1669006 52.6235008 0.0178874 -0.0070332 -0.0088698
38 2 48.1925011 47.3376999 43.1369019 -0.244602 0.0154121 0.0768907
39 2 50.0983009 48.8714982 44.938099 0.0328881 0.0299027 0.0356621
40 2 44.2975998 45.4109993 46.1449013 0.0335721 0.0144653 0.0030482
41 2 49.1758003 43.0085983 54.3165016 0.0021063 0.0155186 -0.007171
42 2 48.6006012 49.1554985 48.9558984 0.0278314 0.0139883 -0.0238315
43 2 51.8035012 51.8466988 48.4686013 -0.0174067 -0.0502996 0.0510437
44 2 50.2495995 58.2028008 42.6016007 -0.0019817 -0.0052938 0.0044891
45 2 55.877102 61.0676994 43.9482002 -4.93819e-04 -6.0879998e-04 2.1233399e-04
46 2 53.4532013 42.7330017 43.4796982 -0.0084508 0.0070747 0.0069057
47 2 47.014801 54.7481995 45.5197983 9.3699598e-04 -0.0111189 0.0155723
48 2 43.5121994 55.4081001 46.3081017 -0.0411413 0.143455 -0.0146364
49 2 42.0071983 51.1579018 46.0587006 -0.0052884 -0.0152016 3.28667e-04
50 2 49.7798996 45.774601 47.7559014 -0.0618533 0.0837089 0.134898
51 2 51.3209992 50.7062989 42.289299 -0.0093591 0.0032836 0.0166033
52 2 43.600399 42.7532997 50.3549996 -1.8082199e-04 0.0041357 -0.0135281
53 2 51.1379013 46.3988991 53.4250984 0.0046319 0.0118196 -0.0126112
54 2 52.9095002 47.3422012 50.2871018 -0.0303166 0.0134077 6.1218901e-04
55 2 50.3362999 44.4958992 45.2663002 0.0173428 -0.038329 -0.130248
56 2 51.6342011 51.8877984 52.4143982 -0.0089335 -0.0032173 -0.0021318
57 2 55.5754013 62.6856003 54.1514015 0.0 0.0 0.0
58 2 49.2547989 54.7013016 49.243599 -0.0463555 -0.0026834 0.0189211
59 2 55.9051018 49.7206002 52.8807984 -0.0025041 0.011681 -0.0165895
60 2 50.3391991 47.8310013 58.5634003 -0.0019189 -0.0035386 -5.6782999e-04
61 2 50.4844017 54.0080986 44.4263001 0.0643008 0.012089 0.0606227
62 2 44.6507988 48.4690018 52.3885002 3.44925e-04 -0.0021713 -0.0181617
63 2 41.8658982 50.6446991 50.3620987 0.0157355 -5.0362301e-04 -0.0050414
64 2 50.6586991 49.3746987 55.6399994 -0.0063087 -0.0021012 -0.0323782
