ITEM: TIMESTEP
194000
ITEM: NUMBER OF ATOMS
64
ITEM: BOX BOUNDS pp pp pp
0.0 100.0
0.0 100.0
0.0 100.0
ITEM: ATOMS id type x y z fx fy fz
1 1 46.4361992 40.1217995 47.1166 0.0091332 0.0152831 0.0039345
2 1 44.8412018 55.6932984 46.3451996 0.0108192 0.0028936 -0.0115448
3 1 50.2532005 50.0461006 47.8815002 -0.0552062 0.121674 -0.0203649
4 1 45.8670006 47.4888993 43.9059982 0.0646717 -0.0715502 0.0284029
5 1 51.4417992 43.2927017 46.0330009 -0.0282022 0.0226964 -0.0114003
6 1 46.9313012 47.8055001 39.3089981 0.0115827 0.0071089 0.0219792
7 1 39.2454987 47.9751016 44.2779999 0.0223482 -6.6640101e-04 -0.0057609
8 1 55.3630982 52.8646012 42.2476006 0.0453078 0.0954963 -0.0660456
9 1 51.6525002 51.739399 42.0872002 0.0053167 1.4009301e-04 -0.0098007
10 1 48.9735986 54.3279991 40.6459008 0.0125871 0.0010643 0.0116084
11 1 45.8116989 52.4642983 43.5022011 0.0346463 -0.0226373 0.0311436
12 1 43.0321999 50.0475006 42.1960983 -0.0199499 -0.0122394 0.0255787
13 1 54.1222992 50.9250984 44.7111016 -0.027616 -0.0855119 0.104809
14 1 47.3778 43.7312012 45.3245011 0.0153945 0.0231192 -0.0076989
15 1 46.3964996 56.8282013 42.3726998 0.0119762 -0.0117046 0.0128276
16 1 46.0536995 50.4760018 47.4724999 0.0635782 -0.062109 0.0819861
17 1 54.5331002 54.1360016 46.3933983 0.0136023 0.0020631 0.0153117
18 1 48.328701 47.2112007 46.987301 -0.103854 -0.0291867 -0.0124085
19 1 56.345501 56.8310013 48.0498009 -0.0025903 0.0176497 0.0107613
20 1 49.5848007 50.7327004 39.0666008 -0.0021782 -0.0088582 -0.0286356
21 1 54.968399 51.271801 50.743599 -0.0035105 -0.0030529 -0.0274359
22 1 50.1551018 45.1692009 41.3946991 -0.0010064 0.0122606 0.0193977
23 1 50.7193985 55.9243012 44.1545982 -0.0259586 0.0221517 0.0078427
24 1 49.0261002 52.8927002 45.6596985 0.0393139 -0.0816896 -0.0393558
25 1 54.3769989 51.1114006 39.1832008 -0.0252758 -0.0127566 -0.011377
26 1 49.3203011 48.8255997 42.2943993 0.0240264 -0.138982 0.0597153
27 1 52.0178986 55.0853004 49.4115982 0.017172 -0.0062448 -0.0036011
28 1 45.0116997 56.0236015 52.1764984 0.0066869 0.005533 0.0026338
29 1 52.6404991 47.5733986 45.5929985 -0.0174205 -0.03592 0.0141352
30 1 43.8013993 46.3465996 40.835701 0.0377608 -0.0115489 0.0041349
31 1 48.834301 56.2538986 47.6186981 -0.0109452 -0.0072071 -0.0040925
32 1 49.7280998 59.5452004 41.3524017 -0.0047842 -0.0139629 0.0060976
33 2 53.3634987 53.5862007 51.9600984 -0.009151 0.0122092 -0.006156
34 2 45.9217988 43.2313004 48.0312996 0.001456 3.42765e-04 -0.001734
35 2 46.5326996 53.2965012 47.2029991 -0.0071966 0.0667224 0.0127317
36 2 45.2667999 56.0147018 55.6178017 -9.3256197e-04 7.6000796e-05 -0.0131095
37 2 49.3426018 44.5298996 48.9151994 -0.0218676 -0.0073466 -0.0221742
38 2 47.617199 55.3298988 44.888199 -0.0208977 0.0407926 -0.037637
39 2 51.2714005 50.0980988 44.8686982 -0.0311313 0.0392702 -0.0156213
40 2 42.0581017 50.0032997 51.5654984 0.0012881 -2.0622799e-04 -0.0015781
41 2 47.1845017 44.8806992 42.3047981 -0.010158 0.0223902 0.0112828
42 2 52.8484994 56.7492981 46.7617989 -0.009099 -0.0148029 -0.0010633
43 2 48.6497994 51.5130005 41.8273011 -0.0647958 0.121876 0.0206174
44 2 48.2075005 49.879902 44.9794998 -0.0559147 -0.0051765 0.0202478
45 2 50.9163018 47.2806015 48.3310013 0.0772474 -0.0513094 0.0177215
46 2 44.4248009 46.6995011 48.1206017 0.056748 0.0574994 0.0234797
47 2 52.6110993 44.4045982 48.6193009 0.0149545 0.0065386 0.0071789
48 2 51.6991005 53.2443009 46.943699 -0.0047874 -0.0181107 0.0158304
49 2 44.6753006 49.9445 45.0755005 -0.0134004 0.0911574 -0.0906301
50 2 52.7882004 53.8217011 43.9678002 0.025477 -0.0300836 -0.02217
51 2 43.0285988 47.5363999 44.8647004 -0.0842757 -0.0698064 -0.0143729
52 2 51.4091988 39.0760002 55.4136009 -4.1618099e-05 3.52229e-05 -2.00494e-04
53 2 53.1408997 50.1543999 47.7932015 0.0724059 0.0045489 -0.0146505
54 2 51.7349015 52.9328004 38.9305992 6.92065e-04 0.0022809 0.0242031
55 2 46.6488991 58.5828018 49.8125992 8.5877304e-04 -0.015087 -0.0018714
56 2 49.8176995 46.2555008 44.6492005 0.021743 -0.0141189 -0.0488698
57 2 57.1545982 53.7941017 48.1708984 -0.0110785 -0.0041586 4.9731604e-04
58 2 49.8078995 39.1483994 48.875702 -0.0077003 0.0052755 -0.0050687
59 2 54.0139008 45.4538002 37.9925996 -0.0019287 0.0015889 0.0023574
60 2 52.7401009 48.5457993 42.2644997 -0.0172113 0.0171021 0.0134177
61 2 42.7541008 44.703701 46.6862984 -0.0356762 -0.0530145 -0.0373799
62 2 45.8574982 54.0709991 40.9536018 0.0053738 0.005077 -0.013577
63 2 41.2537995 47.4771004 41.8097992 -0.0348583 0.0181505 0.0221749
64 2 45.946602 49.5409012 41.8655014 0.0464324 0.0369817 -0.0466545
