ITEM: TIMESTEP
140000
ITEM: NUMBER OF ATOMS
64
ITEM: BOX BOUNDS pp pp pp
0.0 100.0
0.0 100.0
0.0 100.0
ITEM: ATOMS id type x y z fx fy fz
1 1 52.5745011 55.861599 52.5477982 0.0092644 -0.021387 -0.0018224
2 1 49.6925011 46.4518013 41.9934998 0.0115071 0.0251331 0.0245936
3 1 55.8622018 51.3834992 50.1710014 0.0085988 0.0238736 -0.003908
4 1 47.2960014 48.3591004 45.5382004 -0.0089389 -0.0343063 0.0498679
5 1 51.981701 55.8670006 45.6324005 0.005755 -0.0145766 0.0439205
6 1 41.1450996 50.2066994 49.0253983 0.0080307 0.0188321 -0.0128722
7 1 55.7666016 56.7807007 49.8054009 0.0115191 -0.0124971 0.0054997
8 1 50.9403992 45.7013016 45.7627983 -0.0020765 0.0273413 -0.0095779
9 1 48.3560982 50.8650018 55.3047981 -8.8439198e-04 0.0125042 -0.0233151
10 1 53.4085007 42.9813996 44.077301 -0.0044054 0.0119175 0.0035891
11 1 52.8424988 52.0684013 47.0172005 0.0585203 0.0284078 0.0575735
12 1 51.0596008 55.4295006 42.1399994 -0.027737 -0.0098615 -0.0183776
13 1 41.8543016 46.7840996 47.7206002 0.0287135 -0.0112642 0.0082554
14 1 45.4936981 53.0108986 53.1320992 0.0172443 9.9695502e-04 -0.0118047
15 1 50.2179985 54.5460015 49.962101 0.0067588 -0.0015548 -0.0458286
16 1 53.0904999 48.8316002 44.0789986 0.0360271 0.0367412 0.0360156
17 1 46.1697998 43.3792992 45.266201 0.023569 -0.0164509 -0.0380759
18 1 47.6585999 50.3771019 51.4163017 0.0391654 0.0381994 0.0843136
19 1 45.7626992 47.2714005 49.4403992 0.0282453 0.0152763 0.014191
20 1 54.0313988 53.1948013 43.0191002 0.0011689 -0.0083873 0.0120583
21 1 47.5550995 54.9266014 46.6725006 0.0150408 -0.0196218 0.0026984
22 1 50.1743012 47.4243012 52.6613999 -0.0134566 -0.0081355 0.0075788
23 1 42.6183014 47.4119988 40.5107994 0.0051278 2.05776e-04 0.006864
24 1 49.4350014 51.0591011 46.462101 -0.0141796 0.0364043 -0.0118788
25 1 44.7719002 51.4241982 49.524601 -0.0429688 -0.0268887 -0.0288557
26 1 44.1997986 43.5783997 48.4016991 -0.0052739 0.0133447 0.027671
27 1 52.6665001 49.6058007 50.4566994 -0.029679 0.0181162 -0.0091184
28 1 49.5811997 50.8470994 42.2132988 -0.0309216 -0.0147789 0.0278882
29 1 46.857399 43.5740013 51.4981003 0.0152635 0.0218015 -0.0177134
30 1 43.5367012 50.9044992 44.8222008 0.0161706 0.0232243 -0.0192982
31 1 45.774601 49.4728012 41.5290985 0.0083074 0.0015814 0.0375261
32 1 49.5125008 48.2807999 49.1481018 0.0518064 -0.0970088 -0.0369677
33 2 46.8492012 51.1106987 44.3400993 0.0054623 0.0049847 -0.0093659
34 2 51.8409004 46.3497009 48.6226998 0.0125294 -0.0097741 0.0218926
35 2 52.1083984 49.4944992 41.2462998 0.0037491 -0.0124196 -0.0038267
36 2 48.3033981 48.5157013 40.0390015 0.0144378 0.0056257 0.0124624
37 2 55.4919014 53.8103981 53.3740997 -0.0136196 0.0030519 -0.0163144
38 2 50.171299 59.7332001 44.5942002 0.0013408 -0.0088499 3.20785e-04
39 2 47.4174996 50.0822983 48.540699 -0.109019 0.0364157 -0.0930025
40 2 47.8875008 55.9415016 43.4648018 0.0157658 -0.0081353 0.0098156
41 2 48.1341019 54.2607994 54.4076004 -0.0076542 -0.0224906 0.0040257
42 2 51.7570992 49.2424011 47.3025017 0.0054729 -0.0020368 -0.0173403
43 2 45.6974983 46.9123994 43.5424004 -0.0217746 -0.0164438 -0.03231
44 2 46.911499 53.4766999 49.991501 0.0397262 0.006171 0.0106351
45 2 53.0121002 45.9538994 43.1076012 -0.0249522 -0.0087063 0.0014885
46 2 44.1208992 48.536499 46.473999 0.0212238 -0.0147844 0.0365296
47 2 54.8359986 55.4948998 47.0570984 -0.0110555 -0.0126563 -0.0010283
48 2 48.5460015 45.1179009 48.5091019 -0.0044437 0.0202225 0.004116
49 2 54.8484994 49.0127983 48.3526993 0.0036877 0.0184052 0.0051695
50 2 44.1484985 45.1043015 51.2084007 0.0031654 0.0139594 -0.013864
51 2 50.2154999 48.5079994 44.4248009 -0.0610389 0.0041586 1.50162e-04
52 2 51.5713997 51.924099 44.3394013 -0.0193024 -0.0134549 -0.0248136
53 2 50.1279984 44.1455002 51.5211983 -0.0119188 0.017682 -0.0030203
54 2 45.7024002 45.8114014 46.862301 0.0035394 0.0184524 -0.0105733
55 2 39.4103012 48.9578018 51.2173996 -2.1424701e-04 -0.0063789 0.0060577
56 2 50.0903015 51.6109009 49.639 0.0112489 -0.0595548 -0.0158392
57 2 50.7495995 53.0171013 52.6741982 0.0030578 0.0018392 -0.0074473
58 2 54.5424996 46.7610016 46.1043015 -0.0256809 -0.0099926 -0.0165997
59 2 43.3400002 48.6455002 50.5639992 -0.0094147 0.0093439 -6.6624499e-04
60 2 42.4402008 53.1416016 53.7290001 -0.0017142 -0.0021815 -0.0025173
61 2 46.3296013 47.9109002 52.6293984 0.0010185 -0.0138336 -0.0136856
62 2 49.367199 56.3167992 52.1996994 0.0043734 0.0181981 0.0142398
63 2 52.7781983 56.617199 49.4952011 -0.039106 -0.0150003 -0.0045937
64 2 53.2394982 53.1585999 50.0592995 -0.0141722 0.0010014 -7.8550702e-04
