ITEM: TIMESTEP
132000
ITEM: NUMBER OF ATOMS
64
ITEM: BOX BOUNDS pp pp pp
0.0 100.0
0.0 100.0
0.0 100.0
ITEM: ATOMS id type x y z fx fy fz
1 1 52.8680992 52.178299 53.3723984 -0.00791 0.0066432 -0.0319503
2 1 48.2080002 50.5213013 43.1327019 0.0170911 -0.019392 -0.0083477
3 1 53.4169998 53.4356995 49.6861992 -6.7991801e-04 -0.0305104 0.0036654
4 1 48.9906998 46.0948982 46.787201 -0.0280085 -0.0165097 -0.0411356
5 1 45.171299 55.9328996 51.2184982 0.0109936 0.0036519 -0.0334354
6 1 43.2025986 44.0568008 46.7871018 -0.0775428 -0.0189542 -0.0444573
7 1 50.3422012 56.7801018 49.5433998 -0.0266762 -0.0200188 0.0259972
8 1 54.8409004 49.7069016 45.4846001 0.0617937 -0.0680209 -0.0976952
9 1 48.7470017 49.7989006 52.3106995 -0.0198294 -0.0811994 -0.0536086
10 1 47.3377991 53.8638992 43.9770012 -0.0719948 0.0719643 -0.123015
11 1 49.5934983 52.0932007 49.3040009 0.0111275 0.0302414 -0.0041857
12 1 46.8448982 55.8786012 47.5639992 0.115607 0.0736243 -0.0159334
13 1 48.7879982 41.9342004 45.4231987 0.0026257 -0.0360775 -0.0725443
14 1 45.2461014 48.3608017 51.1641007 0.010848 0.0220548 0.0260652
15 1 43.3012009 55.3731995 45.3543015 0.0181774 -0.0122416 -0.00914
16 1 51.1489983 52.035099 45.7095986 -0.0115903 0.0142747 -6.2391501e-04
17 1 52.3507004 45.1088982 45.6166992 0.0119281 -0.002293 0.0184217
18 1 46.4938011 53.1422997 53.1977997 -0.0210619 -0.0453843 0.0468819
19 1 45.5256005 46.1374016 48.3297997 0.0447483 0.027816 0.0776645
20 1 50.3129006 56.5359993 45.7499008 -0.0161041 -0.0301972 -0.0110556
21 1 47.7706986 59.5271988 50.9095002 -2.61709e-05 -0.013606 -0.0110335
22 1 56.8358002 47.0013008 48.2352982 -0.0178153 -0.0273257 -0.0181521
23 1 50.6655007 47.7644997 43.5451012 -0.0049583 -3.62513e-04 0.0224389
24 1 46.112999 51.7841988 48.4878006 0.0101877 0.0094189 -0.0329239
25 1 42.4793015 51.5052986 48.1492996 -0.0217988 0.0042722 0.0406036
26 1 45.7803002 41.7575989 47.8163986 0.0251638 -0.0142463 0.0040714
27 1 57.0098991 50.4020996 49.4686013 0.0046918 0.009774 -0.0263372
28 1 43.7633019 51.3325997 44.8223992 0.0095921 0.0342026 -0.0481217
29 1 48.5307999 45.5750008 50.8158989 9.2871094e-04 0.0146105 -0.0350433
30 1 46.1044998 48.6582985 45.5838013 0.031109 -0.028683 0.0016465
31 1 47.5353012 37.4740982 45.4942017 -0.0020259 0.0199522 0.0011869
32 1 51.1791 48.9449006 47.7596016 -0.0041817 -0.0568239 0.040661
33 2 46.7867012 56.9776002 44.5223999 0.0047431 -0.0170609 0.0153908
34 2 53.6105995 47.0516014 48.5867005 0.0232677 0.0290449 -0.0163884
35 2 45.2538986 49.717701 42.4930001 6.48593e-04 0.0035087 0.0179871
36 2 48.8843994 44.5858002 43.7868004 0.010894 0.0216118 0.0186943
37 2 58.6158982 54.2038002 50.6515999 -0.0060677 -0.0068094 -0.0013633
38 2 52.1805 58.2809982 47.6063996 0.0015637 6.97814e-04 -0.0077832
39 2 47.8513986 48.2659989 48.4954987 -0.0149669 0.0026982 0.060791
40 2 44.3596993 53.174099 41.6585007 0.0083471 -0.0060722 0.0234589
41 2 44.7198982 51.5390015 51.1963005 -0.004171 -0.0061287 -0.0050781
42 2 53.4443016 50.8117981 47.6180992 -0.0484429 0.100333 0.126799
43 2 45.6922989 40.2631989 43.6601982 0.0126447 8.2631006e-04 0.0153204
44 2 44.3973999 54.6551018 48.1254997 -0.107882 -0.0854713 0.049106
45 2 52.5522003 50.2991982 43.4264984 -0.0129021 0.0041192 0.0108302
46 2 46.1727982 44.556099 46.0 0.0277898 -0.0353192 -0.0587069
47 2 60.2100983 45.3512001 44.8266983 -0.0016554 8.6352501e-04 0.0014353
48 2 51.216301 45.0567017 48.6637001 -0.0273235 -0.0084175 0.0015586
49 2 51.2252007 54.3462982 47.8914986 -0.0244678 0.0024398 -0.0331383
50 2 48.4482003 43.292099 47.912201 -8.0260696e-04 0.0428527 0.0972371
51 2 48.8835984 49.9187012 46.1436005 -0.0070024 0.036295 -0.046893
52 2 48.2145004 53.4244995 46.5661011 0.0764023 -0.063814 0.151282
53 2 52.1189003 50.4948006 55.7919998 -0.0085028 -0.0073907 0.0068259
54 2 49.4626007 39.3919983 48.7821007 -0.0080682 0.0077067 -0.0110283
55 2 44.6917992 49.0360985 48.2305985 -0.0348072 0.0375984 5.97082e-05
56 2 49.4688988 52.3540001 53.3384018 0.0582379 0.0623513 0.0338694
57 2 55.7075997 52.2403984 51.3516998 -0.0274315 0.0251246 0.0407691
58 2 51.8378983 54.0670013 43.4693985 -0.0101645 0.0044856 0.009428
59 2 43.8698998 45.330101 52.2187004 0.0106551 0.0131008 -0.0122924
60 2 40.2723999 51.9147988 45.6943016 0.0238058 -6.6768198e-04 0.0054411
61 2 51.6553002 50.5756989 50.9057008 0.0109201 -0.0047016 -0.0018096
62 2 48.6590004 55.4525986 54.2989998 -0.0073309 0.0016676 0.0085674
63 2 48.6813011 60.7464981 47.1278 0.0012411 -0.0115463 0.0070172
64 2 48.2324982 54.4650994 51.2849007 0.0264188 0.0354192 -0.0979521
