ITEM: TIMESTEP
156000
ITEM: NUMBER OF ATOMS
64
ITEM: BOX BOUNDS pp pp pp
0.0 100.0
0.0 100.0
0.0 100.0
ITEM: ATOMS id type x y z fx fy fz
1 1 54.683899 47.0648003 43.1525993 -0.0112532 -0.008908 0.021798
2 1 47.7304993 48.8204003 41.901001 0.0276038 -0.0044361 0.0246665
3 1 57.0964012 48.1786995 47.9627992 -0.0088078 -0.0053499 -8.3490696e-04
4 1 47.7294007 53.7159996 45.398201 0.038802 0.0498817 0.0416744
5 1 50.8210984 53.2979012 43.3190994 0.0210741 0.0223176 0.0539118
6 1 46.4850998 57.2714005 45.2899017 -0.0221632 -0.0295495 0.010164
7 1 53.8694992 40.8676988 43.3445015 0.053417 5.22682e-04 -0.0287795
8 1 50.0189018 43.6036988 45.8129006 0.0048641 0.0209632 -0.0145089
9 1 45.3866997 55.2971993 49.0430985 -0.0133564 -0.0433432 0.0031097
10 1 57.8894006 44.5115013 46.5099983 -0.0207913 0.0037788 2.27703e-05
11 1 52.936699 45.4416008 47.5070992 -0.0094926 0.0291345 -0.0234343
12 1 46.3857994 52.2743988 42.5043984 -0.0068839 0.0146865 -0.0511789
13 1 43.5233994 51.9151994 47.8361016 0.159481 0.0257881 0.004794
14 1 48.1661987 57.4424019 50.2284012 0.006289 -0.0106752 0.0460119
15 1 50.9765016 46.3103981 42.0589981 -0.0385845 0.0317287 -0.0287337
16 1 47.5910988 45.4626999 52.6161003 0.0079475 0.0138113 -0.0153762
17 1 45.0519981 49.8498994 44.9477998 0.0101351 -0.0171665 0.0106778
18 1 52.4681015 50.2249985 48.4165993 -0.048062 -0.145816 -0.0570529
19 1 40.5760994 55.0714989 47.6343994 0.0302788 -0.0204689 -0.0012329
20 1 41.2675018 46.4712982 59.2505989 0.0 0.0 0.0
21 1 52.9292984 53.3802986 46.5387001 -0.0181608 0.0167737 -0.0101694
22 1 48.2179985 49.5353012 52.9011994 0.0029357 -0.0100266 -2.7804201e-05
23 1 44.4203987 56.4962006 53.0200005 -0.0018929 -0.0216156 -0.023268
24 1 48.5181008 49.6860008 46.914299 -0.0212332 -0.0126931 0.0496255
25 1 49.5769997 53.3535996 49.6767006 0.0221317 0.0621179 -0.0278729
26 1 43.1209984 54.7585984 43.8958016 -0.0411921 0.0087364 0.0266068
27 1 52.1453018 47.1108017 50.9609986 -0.0215716 -0.0021998 -0.017098
28 1 51.4556008 42.8804016 40.8314018 0.0166387 -0.0208508 0.012659
29 1 45.0153999 52.6176987 53.7921982 0.0128987 0.012813 0.0029381
30 1 49.360199 58.7527008 47.0317993 0.0303385 -0.0154396 -0.0088014
31 1 51.4656983 48.2797012 45.2324982 -0.0137764 0.049607 0.0089853
32 1 46.4903984 51.4339981 50.1621018 -0.0014673 0.0027012 -0.0139228
33 2 52.3487015 51.0592003 44.3362007 0.0422178 -0.0391392 0.0335267
34 2 53.9987984 42.7887993 45.6878014 -0.0089116 0.0297625 0.0196351
35 2 46.5301018 41.8515016 46.7627983 0.0088262 0.0053696 -0.0023779
36 2 48.9109002 53.9057008 41.3037987 -0.0802242 0.0203915 -0.0531637
37 2 56.0491982 41.9211006 40.2424011 -0.003031 -0.0099765 -0.0011685
38 2 48.2961998 46.1722984 44.4169006 0.0286524 0.0120332 -8.0504103e-04
39 2 48.1763001 55.5867005 47.8560982 -0.0042384 -0.0115296 -0.0086965
40 2 54.4846993 47.8893014 46.3036995 -0.0219574 0.0018879 -0.0089144
41 2 51.3692017 56.2985001 48.7867012 -0.0213171 -0.0115148 -0.0070227
42 2 47.6142998 47.2784004 49.4257012 -0.0085147 0.0171052 0.0202839
43 2 49.8885994 56.0432014 45.2681008 0.0058495 -0.0082081 -0.0179365
44 2 56.5359993 49.5056992 61.1789017 0.0 0.0 0.0
45 2 41.6507988 52.6325989 45.6362992 -0.0143405 0.0260718 -0.0497319
46 2 52.8470002 52.739399 49.5850983 -0.0020123 0.121723 0.0556603
47 2 51.0079994 41.3973007 43.6609993 -0.0473893 0.0256234 0.0072468
48 2 44.9595986 52.8916016 45.3189011 -0.0257794 -0.0148476 0.0046186
49 2 50.1941986 44.4136009 51.1250992 0.0051303 0.0159839 -0.0082613
50 2 43.7831993 52.5098 51.0439987 -0.0189535 0.0192288 -0.0318321
51 2 49.0598984 50.8069992 44.1431999 -0.0304233 -0.0061914 -0.0400247
52 2 49.9546014 52.3581009 46.7015 0.0699835 0.0019821 0.0480054
53 2 49.4751015 50.426899 50.1931992 0.0111451 -0.0404499 -0.0232532
54 2 45.7006989 55.5858994 42.7429009 0.0520323 -0.0100381 -0.0053724
55 2 40.8210984 51.6441994 48.4418984 -0.150074 -0.011722 0.0658417
56 2 54.6334992 43.8070984 49.1990013 0.0366291 -0.0298237 0.0295015
57 2 42.1689987 54.3746987 54.4711991 0.0210475 8.3493099e-04 -0.0131634
58 2 50.4812012 50.9692002 41.0825005 -0.0063844 -0.0092199 0.014738
59 2 43.5094986 56.2556992 47.0541992 -0.0351609 0.005527 -0.0596031
60 2 41.988701 57.1917992 50.6436997 0.01467 -0.0147764 -0.0028599
61 2 46.8447 54.5929985 51.4989014 0.0189165 -0.0205999 0.0294872
62 2 50.1824989 46.7624016 47.659401 0.0107429 0.0079521 -0.0159367
63 2 54.7869988 43.9315988 42.433899 -0.0257815 0.0058263 0.0177739
64 2 52.2529984 45.5651016 44.5816002 0.0325034 -0.0760896 0.0084515
