ITEM: TIMESTEP
148000
ITEM: NUMBER OF ATOMS
64
ITEM: BOX BOUNDS pp pp pp
0.0 100.0
0.0 100.0
0.0 100.0
ITEM: ATOMS id type x y z fx fy fz
1 1 56.4854012 50.9090996 49.9398004 0.0250461 0.0176656 0.0276864
2 1 50.942299 47.6062012 40.0477982 -0.0311225 0.0104399 0.0185127
3 1 61.2383995 49.3634987 47.6901016 -0.0174628 0.0051151 -0.0020922
4 1 44.8588982 49.5159989 46.2806015 0.06909 0.0111564 0.0658692
5 1 51.1731987 53.3249016 42.6731987 -0.0168319 -0.0182849 0.0153546
6 1 42.3824997 53.2551994 46.3008003 0.0098134 -0.0202885 0.0198048
7 1 56.9992982 48.9281006 46.2230988 0.119619 0.115475 0.0825464
8 1 47.7132988 46.2150002 45.6483994 -0.0203464 -0.0012505 -0.0249248
9 1 46.0124016 52.7669983 52.1668015 -0.0288378 -0.0406884 -0.0253954
10 1 55.3045998 46.0009995 47.4480019 0.0156926 -0.0743026 0.008511
11 1 52.4339981 48.073101 47.5999985 0.0263715 -0.0022494 -0.0596637
12 1 47.0838013 48.1582985 37.5037995 -0.0017323 -0.0235845 -0.0244759
13 1 44.4496994 46.7011986 49.5824013 -4.4277301e-05 0.0339084 -0.0204998
14 1 50.8045006 55.8717004 52.4780998 0.0032724 0.0013361 -0.0124901
15 1 54.5060005 51.6180992 46.9714012 -0.0166386 0.0063467 -0.0506668
16 1 50.5009003 44.8919984 49.3534012 0.001546 0.0372833 -0.0107194
17 1 45.9196014 47.3768997 41.2985001 -0.0103039 -0.0083534 0.0361041
18 1 49.5247994 51.5402985 50.3773003 0.0057352 -0.027656 -0.023356
19 1 42.5078011 50.3241997 50.0507011 0.0242179 0.0267495 -0.0029414
20 1 48.8079987 50.7566986 61.5736008 5.00982e-04 9.7735796e-04 -4.23141e-04
21 1 47.7575989 51.9922982 45.3260002 -0.0264956 0.0728127 -0.011443
22 1 50.8268013 48.7218018 55.4956017 -0.0093974 0.0062555 -0.0195352
23 1 43.8666992 55.4415016 53.6627999 -0.010382 -0.0080374 -0.0146875
24 1 49.1330986 49.2897987 47.1110001 -0.0566564 0.012472 -0.0125714
25 1 45.8932992 53.2616997 48.5069008 0.0746942 -0.0244306 -0.0743164
26 1 41.7829018 48.3936997 45.0559998 -0.0472929 -0.0163925 -0.0179993
27 1 53.0340996 48.6152001 51.4625016 -0.0450707 0.0415818 0.0261738
28 1 52.7270012 49.3418999 43.9646988 0.001918 0.0014234 0.0219002
29 1 44.2097015 48.7076988 53.2789993 0.0190496 0.0021164 -0.0321249
30 1 45.033699 53.9089012 43.5167008 -0.0048879 -0.0128212 0.0016798
31 1 49.174099 49.3488999 43.3800011 -0.0417394 -0.0279497 -0.0568388
32 1 47.8879014 48.0428009 51.2965012 0.0017287 0.016789 0.0348691
33 2 49.388401 56.6696015 44.8348999 4.06282e-04 -0.0111755 -6.67239e-04
34 2 52.9132004 43.4015999 47.6260987 4.0858698e-04 0.0221958 0.0064778
35 2 52.9266014 45.8828012 38.4645005 0.0053995 -0.0057407 -0.0044872
36 2 47.4967003 49.5824013 40.0522003 0.0309353 0.0410821 0.042705
37 2 58.0736008 51.6683998 47.3324013 -0.009185 -0.0077311 -0.0012446
38 2 52.6192017 53.2803993 38.8241005 -0.0032839 -0.0012615 0.0079173
39 2 45.6222 49.6963005 50.0026016 -0.0062147 0.0118657 -0.003229
40 2 53.0728989 54.4201012 47.7985001 0.0050176 -0.0199298 -0.0046859
41 2 48.8391992 53.5195008 52.5349007 0.0256314 0.015195 0.0191971
42 2 47.6601982 46.7276993 48.6669007 -0.0030913 -0.0075404 -0.0244911
43 2 47.8630982 53.2933998 42.3852005 0.015762 -0.0143098 0.0090664
44 2 50.4799996 55.8834992 49.2462998 -0.0086534 -0.0054201 0.0107903
45 2 43.6072006 49.7882996 40.6058998 0.0163942 -0.0095757 0.0074992
46 2 44.1332016 56.5798989 49.9804994 0.0095172 0.0175038 0.0050545
47 2 55.1745987 47.4936981 44.7173004 -0.123053 -0.116949 -0.0674096
48 2 44.5433007 46.7249985 44.3693009 0.0135007 0.0226494 0.0031355
49 2 53.4317017 46.1086998 49.9082986 -0.0566574 -0.0984767 0.0027558
50 2 45.7994995 45.8227005 52.1579018 0.0060215 0.01279 0.0126402
51 2 45.6306 50.2559013 43.4686013 0.0248248 0.0062032 -0.0239195
52 2 50.9110986 51.9856988 46.2434998 -0.0021411 -0.0195014 -0.0077332
53 2 48.5009003 50.1567993 53.5115013 -6.0566602e-04 0.0080737 -0.0111751
54 2 40.4362984 51.0788002 47.7324982 0.0171422 -0.0034079 -0.0024167
55 2 41.1352005 47.5537987 49.8618012 0.0148031 -0.003246 -0.0035799
56 2 50.398201 48.5934983 49.5778008 -0.0151884 -0.0344724 0.129455
57 2 50.213501 55.7396012 63.078701 -3.3487101e-04 -0.0011873 -3.58619e-04
58 2 48.6502991 45.2925987 40.7146988 -0.0036267 0.0234789 4.7888303e-04
59 2 43.5936013 53.5172997 50.1571007 -0.0745522 -0.0320868 0.0480717
60 2 41.9664994 52.3652001 52.6543999 0.0120325 -0.0102814 0.0071176
61 2 44.8787004 51.4712982 54.6279984 -0.0088867 -0.0064757 0.0114077
62 2 52.517601 50.8577996 49.0620995 -0.0134712 0.009012 0.0263599
63 2 55.5129013 50.3170014 43.5481987 0.0349165 0.0478181 0.0021256
64 2 54.9079018 48.5419998 49.1633987 0.0831792 0.0572869 -0.0587053
