ITEM: TIMESTEP
138000
ITEM: NUMBER OF ATOMS
64
ITEM: BOX BOUNDS pp pp pp
0.0 100.0
0.0 100.0
0.0 100.0
ITEM: ATOMS id type x y z fx fy fz
1 1 50.5526009 55.3955994 52.5646019 0.0162633 -0.0271829 -0.0226627
2 1 48.9508018 45.1381989 42.6850014 0.0047322 -0.0368389 0.005293
3 1 55.7397995 52.6585999 50.9892006 0.0021999 -0.0289541 -0.0293934
4 1 47.6417008 47.2136994 46.8013993 -0.0033121 0.0042641 -0.0371569
5 1 51.7918015 57.6528015 47.2757988 -0.0113398 -0.0168863 0.009135
6 1 41.1647987 49.0239983 47.2893982 0.0161561 -0.0105833 -0.0221915
7 1 54.8596002 56.2226982 50.5820999 -0.0280748 0.0083039 -0.0158738
8 1 51.2447014 47.1125984 45.3960991 0.0054688 0.0133901 -0.0097763
9 1 48.9261018 50.3881989 55.4320984 4.57408e-04 -0.0075358 -0.0065933
10 1 55.3652992 47.2271004 41.7890015 -0.0065913 -0.0213281 -0.0424988
11 1 53.3098984 52.3848 47.5984993 0.0126355 0.0779257 -0.0524431
12 1 50.2486 54.9045982 43.9571 -0.0708202 0.0578445 -0.0058873
13 1 42.3210983 44.2859001 47.5138016 0.0265209 0.017021 0.01382
14 1 45.4187012 49.5704003 53.1898003 0.0262768 0.0095633 -0.0096276
15 1 49.2563019 54.7235985 48.7877007 0.0026346 -0.071011 -0.0111554
16 1 53.1161995 49.9469986 43.0969009 -0.0036458 0.0057445 0.0352551
17 1 45.3922005 43.7731018 45.1931 0.0135251 0.0166359 0.0068741
18 1 49.0037994 50.242199 51.5499993 0.0138201 -0.0179674 -0.0416145
19 1 44.6553002 47.2835007 50.2720986 0.0089906 0.0130551 -1.85099e-04
20 1 53.8918992 53.9263 43.6097985 0.0132249 -0.0096261 0.0115253
21 1 48.5335007 58.4627991 45.2495003 -0.0018572 -0.0238678 0.0105101
22 1 51.1088982 46.6529999 52.8507996 -0.0116785 0.0144772 -0.0181371
23 1 46.1463013 42.9278984 40.3484001 0.0044202 0.0119557 0.0106205
24 1 49.3143005 50.5093994 46.1655998 0.0317289 -0.0403544 0.0315966
25 1 44.4506989 51.1226997 48.5676995 0.0144146 0.0116325 0.0180992
26 1 45.5999985 41.9864998 48.8231011 -0.0201644 -0.0161156 -0.0561951
27 1 52.7887001 50.4343987 50.476799 0.0197877 -0.108941 -0.0233287
28 1 46.6479988 52.5429001 43.1362 0.0236737 -0.0023177 0.0267749
29 1 46.8126984 44.0903015 51.3796997 0.0274354 0.0663453 0.0251062
30 1 44.0588989 49.9149018 44.6960984 0.0141342 -0.0086984 -0.0012161
31 1 44.9020996 46.6236992 41.2812004 -0.0651524 -0.015545 0.0398457
32 1 50.4373017 47.8249016 49.1654015 0.0031569 0.0809102 -0.0113978
33 2 47.9025994 53.0735016 46.289299 -0.0022047 0.0242718 0.0093516
34 2 52.0241013 45.3480988 48.8297997 0.0487225 -0.0209544 -0.0108371
35 2 50.1519013 50.6192017 43.3011017 -0.0368859 -0.0227915 -0.0691448
36 2 47.6889 47.1529007 40.8190995 0.064008 0.0226865 -0.037488
37 2 54.9460984 54.5513001 53.2159996 -0.0137436 0.0079944 0.0123518
38 2 52.3338013 61.4487 46.3525009 -0.0032316 -0.010652 0.0017885
39 2 47.3035011 49.3810997 48.9821014 0.0147063 0.0070072 0.0133409
40 2 46.8144989 55.4383011 44.5357018 0.0121788 0.0220323 -0.0129851
41 2 47.793499 52.2879982 53.2601013 -0.0254892 0.0375448 0.0140303
42 2 52.5410004 49.5676995 46.9627 -0.0279689 -0.0283817 -0.0045487
43 2 45.1645012 46.8534012 44.7610016 0.0158886 -0.0150559 -0.0495462
44 2 46.8762016 52.9099008 49.5321999 0.0046416 -0.01673 0.011086
45 2 51.2030983 47.5777016 42.0306015 0.0287568 -0.0084656 -0.0021133
46 2 44.6936989 48.4408989 47.3120003 -0.0312268 0.0256899 0.0243395
47 2 56.2752991 53.578701 46.9655 -0.0179749 -0.0030435 0.0052494
48 2 48.9263992 45.3079987 49.1198006 -0.0763732 -0.0322204 0.0050137
49 2 55.6235008 50.5253983 48.417099 -0.0094591 -2.98523e-05 0.0166188
50 2 43.7998009 43.9779016 50.3731003 -0.0011311 0.0177518 -0.001271
51 2 48.6654015 47.8718988 43.7724991 -0.0482093 0.0335945 0.077235
52 2 51.5210991 52.580101 45.0550995 0.0590518 -0.0341332 0.0864308
53 2 54.9325982 47.0511017 52.4737015 -0.0140086 0.0039796 -0.0037194
54 2 45.5115013 45.5791016 47.9866982 -0.0141417 -0.107466 0.001124
55 2 39.0630989 49.0940018 49.6525002 -0.0124184 -0.0015677 -0.0036813
56 2 50.5415001 51.6582985 48.8067017 -0.035217 -0.0037756 0.0036397
57 2 52.1553993 52.4048996 52.4291992 -0.0294706 0.0741958 0.0553538
58 2 55.6319008 48.1478996 44.5768013 -0.0143151 0.02366 0.0410391
59 2 42.2406006 49.3636017 50.0620003 0.0422356 0.0033307 0.0259843
60 2 42.0736008 53.5280991 52.0393982 0.0038486 -0.0050263 -0.0032907
61 2 47.7361985 47.2509995 52.0099983 -7.4085403e-04 0.0088273 -0.0175807
62 2 47.5331002 55.8516006 51.8791008 0.0054901 -0.0109332 -0.0158756
63 2 48.4459992 57.4999008 48.4841995 -0.0036667 0.054361 -0.019733
64 2 52.1078987 54.4471016 49.6481018 0.0393273 0.0089845 0.0207165
