ITEM: TIMESTEP
152000
ITEM: NUMBER OF ATOMS
64
ITEM: BOX BOUNDS pp pp pp
0.0 100.0
0.0 100.0
0.0 100.0
ITEM: ATOMS id type x y z fx fy fz
1 1 54.7644005 52.0634995 44.1180992 -0.0266062 -0.017674 0.0185096
2 1 49.7293015 48.598999 41.3180008 -0.0334484 -0.0128207 0.0101374
3 1 54.1601982 48.6996002 46.899601 0.142963 0.0300401 -0.0953796
4 1 46.6507988 52.0153999 45.8083 -0.104621 0.0282808 -0.0525347
5 1 50.7108994 51.8443986 42.6702996 0.0597981 0.0192111 0.0099897
6 1 45.2111015 55.1021004 47.5312004 -3.1895101e-04 -0.020412 0.0852567
7 1 55.9516984 46.0702019 43.2841988 -0.0274045 0.0052739 0.0164281
8 1 48.0682983 46.2285996 45.7080002 -0.0393105 -0.0273865 -0.0061419
9 1 46.2876015 50.909401 52.1885986 -0.0334301 0.0154378 -0.0023069
10 1 54.5494004 44.5279999 48.9655 -3.71431e-04 0.0112786 0.0063024
11 1 51.7330017 45.5946007 46.8008003 -0.0436941 0.0194907 0.0295067
12 1 47.7122002 51.7835007 40.6539994 -0.0105985 -0.0086568 -0.007348
13 1 44.5934983 50.1081009 48.0666008 -0.0280819 -0.0208952 0.0200286
14 1 47.9135018 56.5783005 53.2881012 -0.00583 -0.0144837 0.0128056
15 1 53.4844017 48.5130005 41.7630005 0.0223614 0.033427 -0.0146097
16 1 48.892601 45.9776002 49.5842018 0.0361113 0.0041994 0.0036479
17 1 46.0866013 48.1018982 42.1677017 0.0037299 0.0262757 0.0256964
18 1 51.6411019 53.6332016 48.2630997 0.0406369 -0.0276805 0.04627
19 1 43.5728989 53.0189018 50.2354012 0.0218095 0.0140769 -0.0197912
20 1 44.1683006 54.3490982 57.7621994 0.0153496 0.0031856 0.0496703
21 1 48.7871018 54.7882996 46.4525986 0.0105232 0.102563 -0.0479547
22 1 49.8356018 51.3028984 53.1720009 0.001792 0.0080681 -0.0153789
23 1 43.8022995 53.6884995 54.3063011 0.0035429 -0.0327904 -0.0643184
24 1 48.1741982 49.9968988 49.1007996 0.0152073 -0.0139884 -0.0155049
25 1 48.6647988 55.0880013 49.9602014 -0.070343 2.6600902e-04 0.0329931
26 1 43.0591011 50.3941994 43.8805008 0.0307302 0.006894 0.0173555
27 1 52.1813011 47.0853004 51.2444992 -0.0124212 -0.0059553 -0.0101742
28 1 51.3512001 45.0722008 42.8823014 0.0326674 0.0688449 -0.0373328
29 1 43.2302017 49.3130989 54.046299 4.1215401e-05 0.0092973 0.0138415
30 1 45.1391983 55.3597984 44.0491982 0.0149984 -0.0309021 -0.0670117
31 1 50.3218994 48.9346008 45.6665001 0.0277852 0.083314 0.010553
32 1 45.8936996 47.050499 52.6015015 0.0247942 -0.0025303 -0.0219337
33 2 51.6861 52.7356987 45.4020004 0.0363827 4.2248702e-04 -0.0353063
34 2 52.9086 41.9538994 48.4509011 0.0163998 -0.0318605 -0.0424845
35 2 50.542099 43.0810013 44.8730012 -0.0150396 -0.0179446 0.0462282
36 2 51.2359009 52.6721001 39.3783989 -0.0137641 -0.0128183 0.0192436
37 2 56.5998993 49.4506989 44.3945999 -0.0245285 -0.0122641 0.0020521
38 2 51.6375008 47.0690002 39.8544998 -0.0128349 -0.024433 -0.0676971
39 2 46.6381989 52.8014984 49.6323014 -0.0030511 -0.0273102 -0.0345072
40 2 54.3848 52.0826988 47.4911003 -0.0108879 -0.0132366 -0.0146037
41 2 49.4460984 57.4584999 48.1715012 5.7310796e-04 -0.0070833 -0.0090683
42 2 46.1212006 47.0924988 49.3580017 -0.0127335 0.0332017 -0.006121
43 2 48.3779984 53.4536019 43.8679008 0.0018632 -0.0032383 -0.0627548
44 2 54.3530007 55.3265 53.3666992 -0.0046444 -0.0015633 -0.002578
45 2 45.4977989 52.1158981 42.7462006 -0.0068553 -0.0029381 0.030254
46 2 50.9578018 54.294899 51.5918007 0.0340625 -0.025148 0.0239674
47 2 53.6665001 44.331501 44.9992982 0.0411393 -0.010455 -0.0325669
48 2 45.8849984 49.3319016 45.1618996 -0.0440382 -0.0825805 -0.0010531
49 2 51.6273995 43.9524002 50.3293991 -0.0245305 0.0641436 0.0226576
50 2 43.9336014 48.9143982 51.0589981 0.0071865 0.0268624 -0.0139027
51 2 48.4574013 50.0186005 43.5163994 -0.0443353 0.0359535 0.0250071
52 2 49.2057991 51.9263 46.9981996 0.083472 -0.0560145 0.0650167
53 2 48.6408997 48.4473992 51.6953011 6.4842396e-04 -2.0968699e-04 0.0085385
54 2 43.5129013 52.5460015 46.2271004 0.0796925 0.0247166 -0.0456051
55 2 41.4280014 51.6717987 48.1531982 -0.0294898 -0.0251615 0.0568506
56 2 51.0032997 45.7775002 54.010601 -1.26521e-04 0.0057979 -0.0163026
57 2 47.1288986 51.5573998 57.7192993 -0.0064262 0.0045819 -0.0027986
58 2 49.2136994 49.7658005 38.4608994 -9.0164499e-04 0.0077779 0.0139909
59 2 45.6753998 54.6949997 52.0868988 0.0069497 -0.0023094 -0.0171624
60 2 42.1338997 51.6707993 52.4286995 -0.0107833 -0.0082842 0.0237228
61 2 47.0116005 53.0153008 54.6431008 -0.0023027 -0.0045041 -0.0170125
62 2 51.8396988 48.4561997 48.3883019 -0.153249 -0.0250011 0.0860786
63 2 54.0567017 45.5317002 40.6679001 0.0510395 -0.0295652 0.0434761
64 2 52.7456017 47.5449982 44.4378014 -0.0072486 -0.032783 0.0231692
