ITEM: TIMESTEP
170000
ITEM: NUMBER OF ATOMS
64
ITEM: BOX BOUNDS pp pp pp
0.0 100.0
0.0 100.0
0.0 100.0
ITEM: ATOMS id type x y z fx fy fz
1 1 49.5396004 45.6627999 44.0042 0.0336952 -0.02961 0.0449781
2 1 44.804699 53.3227005 42.0603981 0.0337618 -0.0043262 0.0383106
3 1 58.1100998 48.0343018 46.2569008 -0.0223326 -0.0031776 -0.0077196
4 1 52.1463013 48.1497994 42.5861016 -0.0191547 0.0156278 -0.011596
5 1 52.710701 48.4040985 46.217701 -0.0146118 -0.0067631 0.028103
6 1 51.6358986 52.1068001 42.8348007 0.041157 0.0353426 0.0072012
7 1 53.4654007 44.6842995 43.8830986 -0.0087562 0.0207152 0.0279151
8 1 45.7896996 48.1553993 44.598999 3.4725402e-04 -0.0957966 -0.0083349
9 1 49.7757988 55.1054993 46.0163002 -0.0258941 -0.0212743 -0.0287162
10 1 46.656601 50.0721016 40.3684006 0.0076461 0.0027966 0.0330773
11 1 48.8124008 42.7971001 46.0401001 -0.0703308 -0.0250886 0.003217
12 1 49.2397003 55.2597008 41.8392982 0.082753 0.0525476 -0.0706643
13 1 43.6543999 55.6701012 48.8039017 0.0259327 -0.0013136 -0.0099021
14 1 56.3125 52.0652008 37.8625984 -0.0045483 -0.0027661 0.0062668
15 1 42.0239983 50.0994988 42.1515007 0.0231549 -0.001271 9.5992899e-04
16 1 43.557499 45.5284004 46.6324997 0.0337754 5.4685898e-04 0.0061611
17 1 47.519001 53.9900018 49.3091011 0.0093734 0.0130026 -0.0264341
18 1 49.7424011 45.8774986 48.7808991 0.0423562 -0.0103703 -0.0223134
19 1 47.8037987 59.4623986 45.6096993 -0.0457695 0.0634261 0.0798078
20 1 46.1293984 44.4239006 42.5377999 0.0011998 0.0066892 0.0209486
21 1 49.9586984 50.9818994 49.3319016 -0.0462743 -0.0012263 -0.0806059
22 1 51.0974999 59.2394982 48.1069984 -0.0155461 -0.024213 -0.0042811
23 1 45.5868988 57.0427017 43.2537003 0.0308698 -0.0088705 0.0159523
24 1 46.8426018 48.8487016 48.1027985 0.0934503 -0.0065388 -0.014714
25 1 48.5779 58.7216988 40.8288994 -0.0094603 0.0163833 0.014036
26 1 48.5498009 50.5083008 43.9101982 -0.0429549 0.175596 0.0711156
27 1 49.9289018 50.3989983 52.8796998 -0.0033945 -0.0100361 0.0141546
28 1 53.4001999 46.7971001 50.2165985 0.0013511 0.0100987 -0.0357994
29 1 47.3474007 57.8016014 49.6403008 0.0075068 -0.0063121 -0.0266251
30 1 55.4229012 51.6109009 43.3199997 -0.0087081 -0.0195622 -0.0033006
31 1 44.7588005 51.6906014 48.5066986 -0.0732927 0.0161886 -0.0362389
32 1 45.7778015 54.0732002 45.8599014 0.0198215 0.0035979 -0.0304287
33 2 52.7102013 49.9222984 49.1778984 0.0332229 -0.080527 -0.0214598
34 2 51.2291985 44.4674988 46.4347 0.037955 0.0321886 -0.0069834
35 2 46.8585014 51.0358009 50.4527016 0.0571359 -0.0112179 0.0196812
36 2 43.1722984 52.043499 39.8997002 -0.0083958 -0.0187832 -0.0146476
37 2 54.5845986 45.9336014 47.2288017 -0.0151651 0.010407 -0.0068973
38 2 43.4706002 46.4431992 41.3863983 0.0128889 0.0045975 0.0119221
39 2 50.5723992 51.5493012 45.6673012 0.11092 0.014962 0.0433928
40 2 49.5185013 42.0746994 48.9810982 -0.0222227 0.0283558 0.0331543
41 2 53.4510002 50.0331001 40.4659004 2.4331498e-04 0.0143608 0.0144942
42 2 45.672699 51.0438004 44.5980988 -0.0408571 0.0799927 -0.0054765
43 2 48.5699997 48.0453987 42.7683983 -0.0398259 -0.137974 -0.122684
44 2 45.5890007 42.9081002 45.4366989 0.0110165 0.0202202 -0.0029344
45 2 47.7574997 60.3865013 53.5322991 -9.32512e-05 -0.0021758 -0.0033503
46 2 51.1685982 47.3787995 52.2145004 -0.021476 0.0146719 -0.0030538
47 2 44.0089989 45.7098007 50.0085983 0.0077715 6.7610798e-04 -0.0153553
48 2 47.8283997 51.9104996 46.7938996 -0.0493274 0.002336 0.05546
49 2 49.0772018 38.3624001 48.7314987 0.0023598 0.0083241 -0.0029982
50 2 45.8037987 57.1169014 46.6567002 0.0129619 -0.0044904 0.0025634
51 2 49.2910004 48.0209007 46.4653015 0.0213294 0.0073599 -0.0270115
52 2 47.8951988 47.4113999 50.5155983 -0.0097439 0.0179449 0.0373666
53 2 49.6777992 53.2705002 51.2780991 0.0043486 0.0027392 0.0309452
54 2 49.9557992 50.4303017 41.0816002 -0.0228564 -0.0202957 -0.0226276
55 2 52.6725006 52.8669014 49.983101 -0.0097186 0.0382091 0.0036379
56 2 51.1357994 40.9318008 46.6450997 0.03337 -0.0233389 -0.031396
57 2 50.3236008 55.9651986 48.8903008 -0.0161687 0.007026 0.0138838
58 2 55.264 47.5497017 44.1152 -0.0210457 0.0033796 0.0093011
59 2 47.7164994 53.5191994 43.3742981 -0.0804393 -0.0948786 0.100475
60 2 48.8456994 57.4706002 43.9191018 0.0305474 -0.0883912 -0.0651251
61 2 53.7010994 56.3268013 45.8031006 -0.0132314 -0.0024342 0.00264
62 2 43.9846002 48.3848992 47.956501 -0.0485392 0.0021629 -0.0154227
63 2 48.6119004 41.7528992 42.860199 -0.0063246 0.0210836 0.0172661
64 2 47.0772018 45.6879006 47.3512993 -0.0277635 -5.3316598e-04 -0.0232905
