ITEM: TIMESTEP
114000
ITEM: NUMBER OF ATOMS
64
ITEM: BOX BOUNDS pp pp pp
0.0 100.0
0.0 100.0
0.0 100.0
ITEM: ATOMS id type x y z fx fy fz
1 1 45.3827019 57.9869004 59.3227005 5.93959e-05 -1.17662e-04 -2.0868301e-04
2 1 40.9129982 48.3138008 49.6553002 0.0044124 0.0062746 -0.0158838
3 1 50.4958 51.2551003 49.2929993 -0.0016054 0.0100106 0.0571993
4 1 53.6120987 51.1507988 43.1674004 0.0052812 -0.0221826 0.0048674
5 1 44.3890991 44.5565987 50.8171997 0.0019989 0.0080559 0.0024868
6 1 50.2462006 52.5601998 42.6148987 -0.0158482 0.0218831 -0.0427199
7 1 46.8126984 56.1058998 48.0007019 0.0058136 0.0154353 0.0359897
8 1 53.5317993 55.924099 46.5401001 0.0064085 -0.0152677 0.0096376
9 1 51.2136994 46.6595001 50.5005989 -0.035655 -0.0221791 -0.0427165
10 1 43.7911988 50.8527986 45.3582993 -0.0017994 -0.0095369 0.0148149
11 1 47.1461983 50.0346985 50.507 0.0142449 0.0052477 0.0899456
12 1 45.4351998 52.947899 53.0737991 0.011739 -0.0191405 -0.0297259
13 1 49.804699 55.6044998 44.872799 0.0135783 0.0051091 -0.0055985
14 1 48.6917 47.8692018 46.0182991 -0.0126088 -0.077756 0.0090435
15 1 43.3843002 45.3843002 46.3960991 -0.0474076 0.0351081 -0.0155176
16 1 46.9695016 53.2136002 45.9958992 -0.0407668 -0.0767515 -0.0673163
17 1 54.4295998 45.5373993 43.6687012 -0.0266321 0.0197637 0.0120687
18 1 50.4009018 50.6106987 53.3008003 0.0571668 0.0394846 0.0494149
19 1 53.6398011 45.7942009 47.5959015 -0.0277224 0.0045176 -0.0197645
20 1 43.0368004 54.2933006 46.6355019 0.0174648 0.0010635 0.012566
21 1 47.1386986 46.5946007 53.8571014 -0.0736492 -0.0778747 0.027612
22 1 53.7645989 51.7776985 51.5083008 0.0093902 -0.0101974 -0.0128396
23 1 51.0643005 55.2900009 49.6263008 0.0019322 -0.0202959 0.0138398
24 1 45.8175011 47.3011017 43.2304001 -0.0144126 0.0325575 0.0135728
25 1 44.4673004 48.8529016 48.6123009 -0.0347992 -0.0071331 -0.0598423
26 1 46.6138001 44.8487016 47.7333985 0.0756271 0.0192795 0.0119452
27 1 50.0679016 51.0680008 45.8011017 0.0439372 0.048415 0.0119179
28 1 50.5917015 43.9864998 44.4987984 0.0113793 0.0264315 0.025448
29 1 54.2261009 51.4154015 47.2599983 -0.0280818 0.0073293 -0.010134
30 1 46.7439003 50.8221016 41.8876 0.0068258 0.0047187 0.0253789
31 1 47.4440995 41.6423989 52.1385002 -0.0045074 0.0119066 -0.0042845
32 1 54.7501984 48.4930001 50.0325012 -0.0112176 -0.0014188 -0.0157513
33 2 44.9626008 54.7225991 44.0438004 0.0017873 -0.0119306 0.0130056
34 2 51.2593002 53.1856995 52.2853012 -0.0163185 0.0728937 -0.0385437
35 2 47.8166008 52.8708 50.2263985 0.0199166 0.0497139 -0.0081987
36 2 55.4057007 48.7033997 43.221199 0.0016785 -0.024853 0.0065568
37 2 51.5728989 59.2834015 54.2360001 0.0013488 -0.0038268 -0.0016719
38 2 46.6539002 49.9179994 44.9446984 -0.0277542 -0.009623 -0.079057
39 2 51.7871018 46.9462014 45.2481995 -0.0101197 -0.0145324 0.0220833
40 2 41.7919007 48.3813019 46.2182007 0.0225448 -0.0074684 0.0142727
41 2 45.9617004 47.257 50.8377991 0.0060235 -0.0238708 0.0030894
42 2 47.5676995 50.6128998 47.6352997 0.0589701 0.0100536 0.0472355
43 2 52.1254005 48.9374008 47.9718018 9.9368496e-04 -0.0075197 0.0066778
44 2 49.3558998 49.5332985 43.2784996 0.0032573 -0.0096453 -0.0123412
45 2 44.5612984 54.9017982 39.7891999 0.0015179 -0.0020788 0.0046201
46 2 53.2030983 42.9225998 46.2247009 -0.0082721 0.0206306 -0.0085613
47 2 52.7248993 53.4202004 44.9244004 -0.0494449 -0.0015921 0.0183858
48 2 53.0541992 56.0929985 53.1379013 -0.0047894 -0.00381 -0.0086169
49 2 45.0026016 52.3567009 48.1673012 -0.0198707 -0.0379431 -0.0155892
50 2 48.8324013 47.9388008 49.1197014 2.3103402e-04 0.006571 -0.011082
51 2 52.1377983 47.8900986 42.2445984 0.0136045 0.0085288 -0.0077082
52 2 41.8446008 51.1399994 48.0457001 0.0187883 -0.0041308 -8.5274601e-04
53 2 48.787899 48.4648018 52.5551987 0.0069257 -0.0405656 -0.102165
54 2 49.8288002 45.0429993 47.9267006 0.010392 0.0110361 -0.0186081
55 2 47.6945992 45.2402992 44.2928009 0.0234231 -0.0096791 0.0339846
56 2 52.5876999 48.5060997 52.2745018 0.0171866 0.0580075 0.0347556
57 2 55.9267006 55.9468994 49.3401985 -0.0131342 -0.0044234 -0.0090025
58 2 49.4645005 53.9724998 47.361599 0.0279287 -0.0284862 0.0380065
59 2 51.3496018 48.3588982 56.2579003 -0.0050417 0.0051314 -0.0152682
60 2 52.6342011 43.5582009 57.2062988 -6.0923896e-04 0.0013491 -6.6252499e-04
61 2 55.9561006 53.7436981 45.094799 -0.0091093 -0.0049163 0.0108344
62 2 44.4986 49.8302994 52.3618012 0.0088482 0.0100603 -0.0166317
63 2 44.8969002 54.6632996 50.2103005 0.0042205 0.0213262 0.0201518
64 2 46.6152992 49.4518013 54.9412994 0.0043309 0.012853 -0.0045449
