ITEM: TIMESTEP
158000
ITEM: NUMBER OF ATOMS
64
ITEM: BOX BOUNDS pp pp pp
0.0 100.0
0.0 100.0
0.0 100.0
ITEM: ATOMS id type x y z fx fy fz
1 1 53.5741997 46.3123016 43.7822991 0.0378593 -0.0470584 -0.0372705
2 1 45.9425012 48.6467018 43.8723984 0.004022 -0.0169792 0.0314069
3 1 56.3312988 44.8086014 46.8330002 0.0906467 0.0033909 -0.0085484
4 1 48.8660012 54.1792984 45.2369995 -0.04637 0.0398254 -0.0389187
5 1 51.6730004 51.118 45.0756989 -0.0489957 0.0478179 -0.0315074
6 1 45.7845001 57.3055 45.0460014 0.0430793 -0.0104748 0.0267794
7 1 55.1721993 41.2445984 43.4478989 -0.0251557 0.00594 -4.7393203e-05
8 1 49.0094986 44.0391998 46.6318016 0.0380422 0.0023985 -0.0227831
9 1 45.9908982 53.2285996 47.6954003 -0.0048202 0.0451328 -0.0184242
10 1 57.1078987 44.5898018 43.0808983 -0.0069967 0.0028897 -0.0035272
11 1 52.9571992 44.9650002 47.3233986 -0.135654 -0.0099366 0.0221868
12 1 47.1973 51.9090004 42.8849984 -0.0029912 0.0179817 -0.0245903
13 1 40.5284004 51.0677986 47.4908982 0.0086594 0.0038932 0.0124808
14 1 49.085701 57.5043984 49.8816986 -0.0039163 0.0524045 -0.0221924
15 1 47.968399 45.6720009 42.1006012 -0.0241359 0.0199883 8.1575594e-04
16 1 48.9627992 47.6697006 50.0747986 0.0140253 0.0219748 -0.0102532
17 1 43.350399 51.8348999 45.078701 0.0274478 0.0113372 -9.25663e-05
18 1 52.9202996 50.2095985 48.4141998 0.0126509 0.0424899 0.0511208
19 1 42.1338997 55.9999008 48.4000015 0.0834104 -0.0274327 -0.0056824
20 1 43.6137009 41.5988007 55.2169991 0.0 0.0 0.0
21 1 54.0579987 53.6945 47.6433983 -0.0315835 0.0018982 -7.9938198e-04
22 1 49.2326012 50.9712982 52.6646004 -0.0376815 0.0092294 0.0056943
23 1 45.3530007 56.3154984 50.4049988 0.0203064 -0.042059 0.0125509
24 1 48.6663018 50.8153992 47.8512002 0.0257105 -0.0358532 0.0072645
25 1 49.9253006 54.2256012 50.7989006 -0.0360898 -0.0946114 0.0152914
26 1 43.8445016 55.5741997 42.4273987 -0.0034766 -0.0205978 0.0038266
27 1 53.0345001 48.0962982 52.725399 -0.0093062 0.0040239 -0.0183412
28 1 51.8328018 42.878399 41.2981987 -0.0474596 -0.0151094 0.0315524
29 1 45.7546005 52.6711998 53.6470986 -0.0037401 0.0056285 -0.0083653
30 1 50.8428002 57.4420014 45.8877984 -0.0176658 -0.0192665 0.0122773
31 1 50.6907997 47.6380005 45.2808991 -0.092714 -0.0298999 0.0340464
32 1 45.3419991 50.2472992 50.1357002 0.0135147 0.0181764 -0.0097895
33 2 54.4193993 50.8003006 46.0299988 0.0805479 0.0182907 -0.0409517
34 2 52.6309014 42.8618012 44.6587982 0.0284346 0.0015731 0.0017887
35 2 46.0460014 44.5719986 47.0966988 -0.0310714 -0.0142184 0.024607
36 2 49.882599 53.8440018 40.1230011 -0.0054881 -1.14692e-04 0.0103127
37 2 52.4714012 39.5507012 42.2195015 0.0052277 0.0243991 0.0048318
38 2 47.6786003 46.4236985 45.2443009 0.0307049 0.0409055 -0.0323532
39 2 47.8226013 56.4356003 47.2998009 -0.0034647 -0.0227894 -0.0110629
40 2 54.5092011 47.4606018 46.5284004 0.0018907 0.0133035 1.6704699e-04
41 2 51.8619996 55.6596985 49.1111984 0.0155936 0.0423994 -0.045895
42 2 45.9584008 48.9995996 47.1675987 0.0154191 0.0151008 -0.0035582
43 2 49.7552986 56.5225983 42.7564011 -0.0073748 -0.0123573 0.0214167
44 2 54.8404008 46.6935005 60.4667015 -1.7689699e-05 1.37414e-05 -7.5829501e-05
45 2 40.0337982 54.1371994 47.3180008 -0.0081246 -0.009525 -0.0092468
46 2 52.7131005 52.9107018 50.5158997 0.01018 -0.0241779 -0.0131443
47 2 48.8622018 39.8412018 43.8983002 0.0064868 0.0059103 -0.0013592
48 2 45.6279984 53.9863014 44.5457001 0.0042255 0.0172866 0.0210449
49 2 50.2442017 44.9586984 49.3112984 0.0112628 -0.0088634 -0.002864
50 2 43.3316994 52.9779016 49.1268005 -0.0140511 1.31121e-04 0.0010411
51 2 48.7681008 50.1459999 44.8017006 -0.0073446 -0.0185515 0.0113082
52 2 50.5931015 53.1105995 47.2817993 0.0639193 -0.0209111 0.0634223
53 2 51.2923012 49.9295998 50.8244019 -0.0177824 -0.0292411 0.0062599
54 2 46.6321984 54.5064011 41.2855988 2.66943e-04 0.0084011 0.0073354
55 2 39.6077004 57.3647995 48.8540994 -0.0489876 0.0253363 0.0072421
56 2 55.4561005 45.4029999 50.2182007 -0.0095605 0.002621 -0.0211819
57 2 43.6334 56.0410995 53.3919983 0.0116246 -0.0072763 -0.015145
58 2 51.8375016 48.8903008 42.7815018 0.0070473 0.003277 -0.0032012
59 2 42.8823014 56.6150017 45.4264984 -0.0154873 -0.0165775 -0.0016811
60 2 44.2955017 58.4382019 48.5068016 -0.0063965 -0.0040963 -0.0225662
61 2 46.8009987 53.0868988 50.7807007 0.0125722 0.0016264 -0.0208462
62 2 51.6006012 47.6790009 48.1491013 -0.0420967 -0.0561499 0.0139922
63 2 54.6763001 43.5433998 41.3591004 0.0470684 0.0190843 0.0137714
64 2 50.3619995 44.676899 43.5093003 0.0241531 0.0180477 0.03043
