ITEM: TIMESTEP
198000
ITEM: NUMBER OF ATOMS
64
ITEM: BOX BOUNDS pp pp pp
0.0 100.0
0.0 100.0
0.0 100.0
ITEM: ATOMS id type x y z fx fy fz
1 1 45.9869996 43.3753014 47.6493988 -0.0037884 0.0231816 -0.0016604
2 1 47.4763985 54.9233018 47.0065002 -0.109383 -0.126722 0.0518802
3 1 51.1128998 49.1511002 47.5601006 0.0209908 -0.0015028 0.0405342
4 1 44.9510002 47.7462998 46.9403992 -0.0996766 0.0039683 -0.028578
5 1 52.4938011 42.7148018 47.3707008 -0.014005 0.0255711 -0.0095815
6 1 46.8689996 47.9620018 40.0178986 -0.0305111 -0.056587 0.0184345
7 1 43.5710984 52.0000992 46.4245987 0.0073262 -0.0232112 -0.0113909
8 1 56.4143982 55.4710999 43.9375992 -0.0221059 -0.0222383 -0.0025123
9 1 50.9146004 50.6077996 42.7078018 0.115948 0.0133705 0.0226701
10 1 51.4810982 53.7538986 40.7321015 -0.051538 -0.0055382 -0.0326438
11 1 46.135601 51.5055008 43.3935013 -0.015285 0.0411919 0.00931
12 1 41.1892014 53.2206001 43.1543999 0.0193508 0.0011905 0.0094237
13 1 55.1819992 50.2873993 43.3368988 0.0389162 0.0066798 -0.0715622
14 1 44.5621987 42.3674011 43.0038986 -0.0218625 0.0219315 -0.0043434
15 1 47.9855996 56.1678009 43.4416008 -0.0840265 -0.0021588 -0.013616
16 1 46.0834999 50.4985008 49.0290985 0.0033215 0.0714696 0.0285274
17 1 53.5615998 52.6497002 45.6619988 0.0906416 0.0683631 0.0530592
18 1 48.3251 46.7606011 46.8638992 0.0484957 -0.0375975 0.021066
19 1 53.6879006 58.1549988 45.0728989 -0.0132573 -0.0201569 -0.0043194
20 1 48.9900018 50.6721001 39.2132988 0.0556549 0.0626143 -0.0508792
21 1 55.1655006 48.7503014 46.744999 -0.0245246 -0.0067578 0.0262757
22 1 47.8035012 43.2260018 44.3647995 0.0129956 0.0402052 -0.0034519
23 1 51.1016998 54.8667984 44.7806015 -0.0812371 0.0629108 -0.0144396
24 1 49.4127998 51.8105011 45.886799 -0.0359592 0.0324297 -0.0170026
25 1 52.7098007 46.0522003 41.3336983 -0.0067087 0.0151612 -0.0105723
26 1 46.8875008 47.8792 43.709301 -0.0828894 0.0145562 0.0231785
27 1 54.6082993 52.7102013 52.5499993 0.0119411 -0.0187122 -0.0270262
28 1 42.3272019 55.6300011 46.0994988 -0.0027013 -1.85983e-04 0.0044106
29 1 51.4777985 47.0157013 44.6671982 0.0536613 -0.0412574 0.0115508
30 1 43.228199 46.5876999 43.3739014 0.0127641 -0.0068092 -5.5630598e-04
31 1 51.3535996 54.6903992 48.3875008 0.0044405 -0.0235115 0.0207878
32 1 50.8889008 57.6020012 41.8801994 0.040197 0.0011387 -0.0045756
33 2 53.0852013 54.804699 54.0381012 -0.0154222 0.0234639 0.0109357
34 2 46.5943985 47.6152001 49.5452996 0.0049822 -0.0681685 -0.0306145
35 2 49.5528984 51.8051987 48.8988992 -8.0229902e-04 -0.0029115 0.0082142
36 2 41.6903992 57.8372994 54.8063011 1.25877e-05 -9.5244599e-05 -6.9841596e-05
37 2 49.7902985 44.9868012 49.8241997 -0.0036091 0.0079647 -0.0195081
38 2 49.3246002 56.7700997 46.0886002 0.093383 0.139456 -0.0097017
39 2 49.3451004 49.0157013 44.8293991 0.0114605 0.0309435 0.0529714
40 2 47.6619988 49.7256012 51.5014 0.0273673 0.0261764 0.034616
41 2 46.3726998 45.3358002 42.1753998 0.0022325 -0.0219466 -0.0630188
42 2 54.6385002 54.3905983 48.4842987 -0.0157938 -4.7045303e-04 -0.0096425
43 2 48.2658005 49.9849014 41.949299 -0.0948966 -0.0353133 0.0026403
44 2 46.5892983 50.297699 46.1376991 0.0081899 -0.013735 -0.0338657
45 2 52.5396996 46.1542015 47.6528015 -0.0094806 0.009361 -0.0151443
46 2 42.4379006 52.1813011 50.6589012 0.0052307 -0.0040503 -0.0116037
47 2 56.4583016 46.8576012 49.6889992 -0.0075331 0.0060302 -0.0107882
48 2 53.0396004 51.4483986 48.3554993 -0.0100136 -0.0081815 0.0164426
49 2 44.5651016 55.2667008 44.0061989 0.0201881 -0.0160671 -0.0014317
50 2 53.2070007 54.2187004 43.016201 0.126902 -0.0131514 -0.0189654
51 2 40.7196007 50.6142006 47.4194985 0.0260678 0.0036689 0.0350536
52 2 52.1105003 39.7904015 57.978199 0.0 0.0 0.0
53 2 52.8524018 49.9930992 45.0629005 -0.0957874 -0.12325 0.0110664
54 2 53.5779991 49.5526009 40.5737992 -0.013795 -9.5418396e-04 0.02374
55 2 53.4910012 57.2543984 50.888401 -0.0024874 -0.0117355 -0.0042909
56 2 45.5068016 45.3515015 45.0475006 0.0037522 -0.0127928 0.0694443
57 2 57.4207993 52.5611992 42.6473999 -0.0159433 0.0037358 0.0085544
58 2 44.9216004 41.1431007 49.6418991 0.0016089 0.0032781 -0.0029593
59 2 50.8070984 43.4552002 44.5685997 0.0267715 0.0221516 0.01129
60 2 49.3530007 46.8021012 42.5381012 0.0336492 -0.0286094 -0.0499167
61 2 41.4609986 47.0973015 47.3133011 0.0191286 0.0082097 -0.0095488
62 2 48.9485016 53.3184013 43.160099 0.0117802 -0.0405376 -0.0080432
63 2 40.0923004 50.6007004 44.4062004 6.3592997e-04 -0.0055919 -0.0338492
64 2 43.5229988 49.5009003 44.3829994 0.0250354 0.0101347 0.0155963
