ITEM: TIMESTEP
128000
ITEM: NUMBER OF ATOMS
64
ITEM: BOX BOUNDS pp pp pp
0.0 100.0
0.0 100.0
0.0 100.0
ITEM: ATOMS id type x y z fx fy fz
1 1 51.2392998 51.4244004 54.9202004 0.160384 0.157891 0.185912
2 1 43.5803986 53.2001 43.5307007 0.0101965 -0.0133203 0.0174959
3 1 51.9384004 54.1842995 50.9939996 0.0025268 -0.0247408 -0.027567
4 1 50.3554993 46.8059006 45.7639008 0.0297459 -0.0300355 0.0122662
5 1 42.9351006 54.2034988 50.3017998 0.0252226 0.0013777 0.0018144
6 1 45.4678002 49.2841988 42.6068993 0.0089283 0.0020576 0.0315309
7 1 51.4995003 57.7332001 48.9376984 0.0531007 0.0531769 0.0093032
8 1 56.6370011 51.3414993 47.6279984 0.0486708 0.0699105 -0.0125889
9 1 50.1908989 48.5228997 53.7994004 -0.0791416 -0.179862 -0.0783284
10 1 44.828701 56.273201 46.6780014 -0.0761589 -0.0106374 0.0325239
11 1 49.0043983 52.7155991 48.6108017 0.0051057 -0.0247386 0.0368403
12 1 47.5789986 57.7710991 48.8265 0.0019203 -0.0075693 0.0115287
13 1 50.4847985 47.5460015 41.9202004 -0.0043299 0.0145154 0.0081241
14 1 47.7209015 49.5763016 50.7025986 0.0560447 -0.0331367 -0.12622
15 1 41.8249016 49.2543984 44.5303002 -0.0248138 0.0236525 -0.0126523
16 1 51.5908013 52.4812012 44.4617005 0.0648063 -0.0526248 0.0265969
17 1 52.4976006 43.7514992 48.7480011 -0.0070863 3.88063e-04 -0.0121789
18 1 46.546299 52.6456986 52.0318985 0.0159581 0.0258925 -0.0159955
19 1 46.9575996 47.642601 47.4723015 0.0927084 0.0037925 0.0178409
20 1 48.1118012 55.6778984 45.7452011 0.066497 -0.0247169 0.0017153
21 1 45.5760002 56.8530998 51.719101 -0.0052511 -0.0285825 0.0034748
22 1 55.2708016 46.0959015 47.4001999 -0.0127265 -0.0024215 -0.0159686
23 1 54.0243988 46.5237007 42.9659996 -0.0141349 0.0041349 0.0267035
24 1 45.2747994 51.8949014 48.3387985 -0.0488805 -0.0890972 -0.0194322
25 1 43.8120995 48.2644997 49.1068001 -0.0336035 0.02652 -0.0068811
26 1 48.1950989 43.8702012 47.5583992 -0.0315701 -0.0560153 -0.0417117
27 1 53.4019013 50.0854988 46.6441002 -0.0228775 -0.077051 -0.0239004
28 1 44.433899 45.6052017 46.1692009 -0.0075417 -0.039976 -0.0334023
29 1 54.6488991 46.9090004 51.1846008 0.0344675 -0.0321891 -0.0530594
30 1 47.744999 50.7098007 45.8520012 -0.0459051 0.066835 -0.0859445
31 1 50.3125 44.1254997 51.8232994 0.022527 0.0203804 -0.0126105
32 1 51.6997986 48.8470002 50.4025002 -0.0225198 0.04166 -0.0322305
33 2 45.1819992 59.4332009 47.5634003 0.0053358 -0.0169473 -7.79987e-05
34 2 55.3610993 48.9333992 48.6068001 -0.0308732 -0.0643353 0.0571105
35 2 49.1713982 53.7910996 43.6978989 -0.070835 0.0107275 -0.0353999
36 2 51.9346008 44.1921005 44.0704994 3.3219602e-04 0.0252327 0.0087203
37 2 53.8577996 55.0460014 47.714901 -0.0149594 -7.3909998e-04 0.0066777
38 2 49.4230995 58.3778 46.5200997 0.0176393 0.0058863 -0.0093183
39 2 50.0180016 49.4796982 47.1450996 0.0571571 -0.0089336 0.0558529
40 2 38.6259003 47.5689011 44.5798989 0.0156948 0.0056183 0.0023663
41 2 43.4957009 51.3347016 51.4947014 0.0249997 0.0022373 -0.0171827
42 2 52.2136002 52.1389008 48.2893982 -0.044954 0.0465195 0.0482683
43 2 47.4868012 40.8364983 45.9166986 0.0031816 0.0132862 0.006597
44 2 41.990799 51.1362 47.365799 0.0261196 -0.0113814 -0.0024224
45 2 51.899601 50.6925011 41.3194008 -0.0065362 -0.0024202 0.0109785
46 2 48.3130989 48.3041992 44.1188011 -0.0191212 -0.0026759 -0.0135938
47 2 55.6293984 43.0872994 46.1118012 -0.0105638 0.0141063 0.0063834
48 2 52.273201 46.7400017 48.219101 0.078052 0.0425031 -0.02334
49 2 49.7543984 55.5433998 48.4093018 -0.0380688 -0.0371556 -0.0173333
50 2 49.4981003 45.9813004 49.0032005 -0.0220183 0.0529942 0.0571605
51 2 51.9299012 49.1366005 44.2192001 -0.0171159 -0.0149392 -0.0093833
52 2 45.9908982 53.3222008 45.5845986 0.0029551 0.0055898 0.0138883
53 2 47.0331001 49.4673004 53.4527016 -0.0128551 0.0091626 0.0906119
54 2 52.0387001 38.0303993 49.6197014 -2.2084601e-04 0.0014174 -2.5770302e-04
55 2 44.5513993 48.9592018 45.6889 0.0517835 -0.0028042 0.0317325
56 2 49.7075997 51.8847008 52.6576004 -0.0895222 -0.0161873 -0.1437
57 2 54.179699 50.9250984 51.6851998 -0.0173194 1.6914699e-04 -0.0210039
58 2 54.7877007 53.0657997 44.0915985 -0.0136901 -0.0100964 0.0126503
59 2 47.3377991 44.3941994 52.0043983 -0.0248779 0.0084734 -0.0065834
60 2 41.8520012 46.9953004 46.5335999 -0.0290247 0.0124528 0.0278382
61 2 53.4508019 48.3037987 53.4667015 -0.0453999 0.0223656 0.0354474
62 2 44.467701 54.3792992 53.2356987 -0.0306996 0.0139331 0.0018663
63 2 48.9992982 54.7145005 51.5466004 -0.0427078 0.0227166 -0.0205103
64 2 46.0353012 54.5220986 49.1795998 0.0358433 0.0877531 0.0329576
