ITEM: TIMESTEP
136000
ITEM: NUMBER OF ATOMS
64
ITEM: BOX BOUNDS pp pp pp
0.0 100.0
0.0 100.0
0.0 100.0
ITEM: ATOMS id type x y z fx fy fz
1 1 50.9355012 53.8921014 53.2761994 -0.0140966 0.0643712 0.0131571
2 1 48.4762001 45.7430001 42.8515016 -0.0443629 -0.0361762 0.0048483
3 1 55.7787018 54.5779 49.2494011 -0.0091476 -0.0015858 0.0043306
4 1 46.8512994 45.9129982 46.9196014 0.0381775 -0.0138478 -0.0220411
5 1 48.938202 58.7633019 50.5116997 0.0069859 -0.0216791 2.01261e-04
6 1 41.1470985 45.1511002 47.4328003 0.012935 0.0100062 -1.3426501e-04
7 1 53.242199 57.0147018 50.771801 -0.010272 -0.0025855 0.0045916
8 1 50.283001 46.8848992 45.867199 0.0932133 -0.0127092 -0.0097448
9 1 48.3370018 49.2449989 54.2016983 0.0052313 -2.3508799e-04 -0.0241909
10 1 53.8658982 50.2669983 40.8638992 -0.0057043 4.2649999e-04 0.019005
11 1 52.6329003 53.0131989 47.3245011 0.0217674 0.0222883 0.0090643
12 1 50.2555008 57.0257988 45.720501 0.0042194 0.0214091 1.3523899e-04
13 1 44.0253983 42.5527992 47.2386017 0.0210588 0.0072524 0.0140842
14 1 45.3160019 49.4947014 51.0415001 0.0040842 0.0230359 0.0103773
15 1 48.8895988 54.1080017 48.3520012 -0.0340239 0.0394594 -0.047247
16 1 51.4995003 51.8586006 43.9659004 0.0050514 -0.0375121 -0.0085357
17 1 47.4133988 42.4980011 45.210701 -0.0042468 0.0096028 -7.39709e-04
18 1 48.5556984 51.8448982 51.2305985 -0.002099 -0.0320317 -0.020956
19 1 44.3708992 45.6660996 49.5858994 -0.0555001 -0.0207361 0.0227763
20 1 53.271801 55.4874001 44.4758988 0.0181569 -0.0228729 -0.010441
21 1 49.4439011 60.4280014 47.0982018 0.0092649 0.0077861 -9.5797501e-04
22 1 52.7792015 45.8585014 51.2977982 -0.0041399 -0.0037184 -0.0241368
23 1 49.8391992 42.9836998 39.8731996 -0.0076257 0.0096283 0.0083714
24 1 47.7706986 50.7667008 46.8586006 0.0975059 -0.0241624 -0.0102504
25 1 43.6092987 51.1677017 47.9533006 0.0142289 -0.0120359 -0.0060119
26 1 43.8622018 39.9555016 50.3362999 0.0047309 -0.0109761 -0.0126966
27 1 52.3983002 51.2975998 51.3903008 0.0452977 -0.0049192 -0.0660899
28 1 46.9732018 53.7971993 45.0152016 0.0150469 0.0211853 -0.0267157
29 1 47.5858994 46.4389 50.7947998 0.0333131 0.0273505 0.0385633
30 1 45.1716995 49.5251007 44.3037987 0.0075817 8.7733994e-04 0.0181389
31 1 44.5029984 42.8862992 42.1529999 0.0131697 0.0132868 0.0143554
32 1 50.4345017 48.3238983 49.1380005 0.0109716 0.0733771 0.0575628
33 2 44.2691002 53.8692018 46.1321983 -0.0410487 -0.0115973 0.0285025
34 2 53.0317001 46.0344009 47.8749008 -0.0259216 0.0148223 0.0093629
35 2 48.4143982 51.1781998 44.0457993 0.0084666 0.002772 -0.0500385
36 2 47.3168984 46.5290985 40.1020012 -7.6664901e-04 -0.0014346 0.0010183
37 2 57.3031006 55.8744012 53.4546013 -0.0040342 -0.0016658 -0.0047544
38 2 53.0115013 60.7951012 47.1217003 -0.0147477 -0.0059169 5.96766e-04
39 2 46.4017983 48.7541008 48.3252983 -0.0388944 -0.0859164 0.03217
40 2 47.7598992 56.5415993 43.6162987 0.0110718 -0.0054671 3.5750902e-04
41 2 45.6880989 52.6324005 51.9127998 -0.0134135 -0.0066914 -4.2224302e-04
42 2 52.1659012 49.4090004 46.844799 -0.0050236 0.0109237 -0.0167161
43 2 45.357399 46.4182015 43.7417984 1.95364e-04 -0.0256333 -0.0077227
44 2 46.3237991 52.5393982 48.6301995 -0.0343974 0.0226095 0.04136
45 2 50.2243004 48.158699 42.7326012 0.0237868 0.0319726 0.0103079
46 2 44.0404015 46.5528984 46.7985993 -0.0752577 0.0283423 -0.0398895
47 2 59.6012001 49.8800012 45.2696991 -0.0019083 2.6344102e-04 -1.36885e-05
48 2 49.3628998 45.6161003 48.549099 0.0262512 -0.0406115 -0.0155708
49 2 55.5415001 51.6245995 50.1188011 -0.0209926 -0.0081925 0.0065041
50 2 44.8167992 42.7947006 50.7195015 0.0046665 0.0252643 -0.0092272
51 2 47.7813988 48.0088997 44.9566002 -0.0329276 0.0561363 -0.0033391
52 2 49.9272004 54.0596008 45.3233986 0.0296245 -0.0104701 0.0263882
53 2 55.3572998 49.5177994 53.4631996 -0.0118204 0.0072402 -0.0106816
54 2 46.8045998 40.8137017 48.8558998 -0.0168791 0.007564 -0.0092355
55 2 41.419899 48.2102013 48.2279015 0.0171589 0.0037319 0.0044437
56 2 50.4370995 51.6357003 48.6733017 -0.0256962 -0.0772099 0.0364096
57 2 54.7710991 53.5379982 52.9550018 -0.018528 -0.0045557 -0.017308
58 2 54.7215004 50.012001 44.5561981 -0.0160131 0.0084065 -0.0073115
59 2 42.9147988 47.5469017 51.4482994 -0.0088639 0.0112966 0.0043751
60 2 41.6899987 53.5024987 50.5121994 0.0098716 -0.0076698 -0.0063223
61 2 51.681099 48.5325012 52.2579003 -0.0270261 -0.0094697 0.0026062
62 2 48.4435997 56.3011017 52.4948006 0.0133193 -0.0134179 -0.0088628
63 2 47.6167984 56.3829003 46.8576012 -0.0489987 -4.4576803e-04 0.0174053
64 2 51.221199 54.8429986 49.9093018 0.0479731 -0.0085398 0.036935
