ITEM: TIMESTEP
168000
ITEM: NUMBER OF ATOMS
64
ITEM: BOX BOUNDS pp pp pp
0.0 100.0
0.0 100.0
0.0 100.0
ITEM: ATOMS id type x y z fx fy fz
1 1 50.4866982 44.4772988 44.1081009 -8.9481602e-04 0.0338432 -0.0280433
2 1 44.6516991 52.0722008 40.0647011 0.0165622 -0.0093501 0.0114879
3 1 56.4562989 46.4884987 44.7064018 -0.0198364 0.0136363 0.0069121
4 1 49.8022003 50.3157997 42.6363983 0.0114515 -0.0409255 0.0053354
5 1 52.4749985 47.8119011 44.092701 -0.009519 -0.0316645 0.0193623
6 1 50.5528984 53.8156014 43.974701 0.0203276 -2.3935599e-04 0.012759
7 1 55.4822006 42.9202004 45.1927986 -0.0309808 4.9437104e-05 0.0172461
8 1 46.2881012 46.9485016 43.6827011 -0.0212903 -0.0147589 0.0921869
9 1 48.3050995 56.1094017 47.5299988 -0.0271424 -0.0500631 -0.0715136
10 1 47.1158981 48.9630014 40.3011017 -0.060871 0.0509496 -0.0314042
11 1 50.1296005 42.8347016 47.6864014 -0.0556328 -0.0478337 -0.0239285
12 1 50.2574997 56.9131012 39.9110986 -0.0067317 -0.0054763 0.0183238
13 1 43.6593018 54.5032997 49.2853012 -0.018416 0.0272431 0.0341128
14 1 54.7766991 54.1321983 40.4332009 0.0014526 -0.0115182 0.0040763
15 1 43.7682991 49.5579987 42.966301 0.0038303 0.0164213 -0.0077742
16 1 44.6338997 44.6581002 47.1343002 -0.015461 0.054437 -0.0090199
17 1 46.9836006 52.9776002 48.7491989 0.0015143 -0.0125578 0.0472682
18 1 50.6632004 46.6918984 47.4369011 -0.0540325 0.0297986 -0.0581161
19 1 47.0970001 59.7392998 46.8790016 -0.0286463 0.0122681 -0.0137397
20 1 47.3045998 42.5803986 44.4101982 -0.119128 0.0079965 -0.0525552
21 1 50.7583008 52.2025986 49.4244995 -0.0179522 -1.42247e-04 -0.0243798
22 1 50.0145988 58.1472015 49.7795983 0.0161819 0.0332217 0.0475752
23 1 45.4099999 57.0554009 44.4499016 0.0260255 0.0252901 0.0022773
24 1 48.1068001 49.8196984 47.0019989 -0.0296533 0.0389055 0.0610427
25 1 48.0424004 61.5415001 43.4379006 0.0012267 -0.0171088 0.004555
26 1 46.9763986 52.290699 43.7160988 0.0100468 -0.0512069 -0.0423713
27 1 48.601799 49.0828018 52.6077996 0.0292015 -0.0189883 0.0123293
28 1 53.017601 44.8951988 49.1911011 0.0663652 -0.0308905 0.0475605
29 1 45.8852006 57.9734994 49.8801994 0.0021793 -0.0207996 0.0246556
30 1 53.5904007 51.1155014 42.8809014 0.0068786 0.0250902 -0.0072041
31 1 44.3670998 49.6719017 48.7518006 0.0318462 5.8165002e-04 -0.0116435
32 1 44.7783013 53.8017998 45.9518014 -0.0322926 0.013205 0.0024876
33 2 54.0329018 48.2924004 47.6474991 -0.0168715 -0.0207154 -0.0088139
34 2 52.4614983 43.9561996 46.2902985 0.0568708 0.083136 -0.0211507
35 2 47.4150009 50.4303017 50.2909012 -0.030096 0.0088935 -0.0549318
36 2 43.7644997 48.834301 39.8181992 0.0190151 0.0104174 0.013734
37 2 56.0849991 45.3604012 47.942402 -0.0183399 -0.003368 -0.0184992
38 2 45.0368004 45.2294998 41.4154015 0.0049224 0.0069398 3.1071401e-04
39 2 51.9617004 54.3806992 47.1547012 -0.0190758 -0.0037925 -0.0022161
40 2 49.3529015 44.453701 50.0187988 0.0051878 0.0207865 0.0202076
41 2 57.0983009 51.6637001 40.2795982 -0.0127734 0.0080677 0.0038039
42 2 43.8191986 50.8520012 45.8386002 0.0150624 -0.005484 0.0025788
43 2 48.5614014 47.0772018 41.9360008 0.107591 -0.0413023 -1.53042e-04
44 2 46.3269005 42.2873001 47.2518005 0.0375771 -0.0488086 0.0260392
45 2 47.7745018 58.5522995 52.9124986 -0.0025825 0.0332863 0.00382
46 2 51.9283982 47.3588982 51.2238007 -0.01068 -0.007064 -0.0195882
47 2 42.5423012 45.7801018 49.3759995 0.0111404 0.0024161 -0.0086792
48 2 49.0620003 52.7452011 46.5976982 0.0129898 0.0019496 -0.0171936
49 2 49.5861016 40.5371018 50.3562012 0.002685 0.0147313 -0.0141929
50 2 43.9743004 57.7053986 47.3633995 0.0213714 -0.0136348 -0.0051079
51 2 49.2029991 48.0251007 45.0522003 0.0317237 -0.0522751 -0.0695258
52 2 48.6691017 47.5820999 49.5367012 -0.0063908 0.0167333 0.0048081
53 2 48.9726982 52.776001 51.9151994 -0.0020112 2.42117e-04 -0.0020121
54 2 47.9151002 53.0695 40.5171013 -0.0083058 -0.0141658 0.0223008
55 2 52.2771988 55.9533998 52.5889015 -0.0087417 7.6907797e-04 -0.0071964
56 2 52.4760018 41.0057983 46.9045982 0.0115597 -0.0530582 0.0083495
57 2 47.9403992 55.9667016 51.2787018 0.0064978 -0.0338613 -0.0510452
58 2 54.4087982 45.6918984 42.2266998 -0.0046356 0.0062423 0.0240814
59 2 47.8563004 55.0227013 44.5652008 -0.0298476 0.0336455 0.0231193
60 2 48.7635994 57.6924019 42.8535004 -0.0022476 0.0050838 8.2438402e-04
61 2 49.8056984 58.5934983 46.4343987 0.0284755 -0.0153889 -0.0017063
62 2 46.2817001 47.3157005 47.1348 -0.0068132 0.0107964 -0.0085348
63 2 49.8970986 41.4528008 44.6586991 0.0935283 -0.0294427 0.0248756
64 2 48.1862984 44.7877999 46.101799 0.0166054 0.0588113 0.0418332
