ITEM: TIMESTEP
116000
ITEM: NUMBER OF ATOMS
64
ITEM: BOX BOUNDS pp pp pp
0.0 100.0
0.0 100.0
0.0 100.0
ITEM: ATOMS id type x y z fx fy fz
1 1 46.9356004 60.1332016 58.4794998 0.0 0.0 0.0
2 1 41.3557015 49.2877998 49.0699005 -0.0211853 -0.0052244 0.0138805
3 1 49.8725014 52.3829994 49.7272988 0.0485811 -0.148951 -0.0272287
4 1 54.4522019 50.9957008 43.2322998 -0.019265 2.69961e-04 0.0231011
5 1 43.0878983 45.5712013 49.8512002 0.0129827 -0.0148527 -4.72891e-04
6 1 47.9241982 48.2221985 39.3670998 -0.0027973 0.001017 0.0140624
7 1 48.8237992 55.5914002 49.8546982 -0.0362258 0.101973 -0.0076979
8 1 55.3650017 54.7765999 44.2406998 0.0239782 -0.0109008 0.0020523
9 1 49.8019982 45.6123009 50.799099 0.0199428 -0.0136402 -0.0697619
10 1 43.2234001 51.2566986 46.5438996 0.0086694 0.0315669 -0.0644298
11 1 47.5826988 49.3283997 50.8492012 -0.0360936 0.0516136 -0.0060453
12 1 45.6959992 53.656601 51.026001 -0.0361822 -0.0208382 -0.0301185
13 1 51.8059006 54.2798996 44.0621986 -0.0520504 -0.0024081 -0.0096844
14 1 48.2490997 47.4729996 47.6708985 0.0774795 0.0373354 0.0218466
15 1 43.3512001 44.0699005 46.0266991 0.0090255 0.0056276 0.0080037
16 1 47.3571015 52.6179009 45.0875015 0.0451397 -0.0183616 0.0300641
17 1 54.5755005 45.6197014 42.8666 -0.0149176 0.0048502 0.0165173
18 1 50.2881012 50.6285019 53.5234986 -0.0209374 0.0177779 -0.035835
19 1 51.9757004 47.3189011 47.5041008 -0.0028051 -0.0200468 -0.0132624
20 1 42.9264984 55.1478996 46.6688004 0.0105987 -0.0134659 0.0067622
21 1 45.213501 47.4748001 52.7187996 -0.0121551 -0.0289942 0.0096608
22 1 55.0716019 53.7619019 52.9544984 -0.0200749 0.0190501 0.0045441
23 1 52.9413986 54.846901 48.8613014 -0.0118589 -0.0196615 -0.0074251
24 1 44.0859985 47.4752007 44.5461006 -0.0340916 0.04489 -0.0245819
25 1 44.7743988 48.3488007 48.1673012 0.0349547 -0.0591684 -0.0065468
26 1 46.5728989 43.4542008 47.9527016 0.0110029 0.0201343 -8.0602598e-04
27 1 50.8147011 50.6375008 45.3013992 -0.0071576 0.0303758 -0.0108179
28 1 48.8688012 45.1069984 44.8297997 -0.0187443 0.0223096 -0.0043801
29 1 54.8965988 51.6665993 48.2543984 0.0300428 -0.0175858 0.031631
30 1 44.7431984 50.8386994 42.6327019 0.0152014 0.0033677 0.0205821
31 1 45.8555984 41.9301988 51.7206993 0.0024497 0.016772 -0.0097884
32 1 53.408699 49.4538002 50.8832016 -0.0331885 0.0048531 -0.0017264
33 2 45.2182007 53.9336014 43.5555992 -0.0384249 0.008619 -0.0179373
34 2 52.6385994 52.5433007 51.3400002 -0.0060708 -0.0088777 -0.0180588
35 2 48.3758011 53.4140015 52.2905998 0.039697 -0.0157971 0.0070342
36 2 54.2313995 48.9216996 45.6528015 -0.0227707 0.0085116 0.0050028
37 2 55.7845993 60.2331009 53.3311005 0.0010141 -0.00382 -0.0011362
38 2 46.0867004 49.9572984 45.8203011 -0.0577261 -0.0400522 -0.0289822
39 2 50.4133988 48.0091019 43.9827996 -0.0065591 -0.0432532 0.0022196
40 2 41.9020004 46.6067009 47.0808983 0.0228215 0.0255356 0.0067557
41 2 46.7056008 45.8335991 49.8969002 -0.0085479 0.0311352 0.0102499
42 2 48.5567017 50.7029991 47.4180985 0.0487614 -0.0204939 0.0331014
43 2 51.9348984 50.2775993 48.0152016 0.0149252 0.0215797 0.0624532
44 2 46.9533006 47.4712982 43.2565003 0.0085458 0.0035383 0.0085582
45 2 45.7993012 53.537899 39.7261009 -0.0017193 -0.0055453 0.0104377
46 2 51.9678994 45.0096016 45.039299 0.0100436 0.0168821 0.0048595
47 2 53.0825005 52.5373001 46.1470985 -0.0017161 0.0327047 -0.0381384
48 2 56.9138986 56.8632012 52.3221016 -0.0083102 -0.0094185 0.0011264
49 2 46.7542 53.1771011 48.0853996 -0.0082329 0.017908 0.0206564
50 2 50.3442993 48.7011986 50.3325997 0.0615643 -0.0170598 -0.0146424
51 2 53.7709008 48.3280983 41.5360985 -0.0036859 0.0090816 0.0104284
52 2 41.4499016 52.7448006 49.3763008 2.3148899e-04 -0.0020028 -0.0160106
53 2 48.7975006 46.6534996 53.2859993 -0.0536313 0.0571253 0.0502002
54 2 49.5890007 44.4626007 47.8115998 -0.0040788 0.02563 0.0047888
55 2 46.0101013 46.2229004 46.332901 -0.0066368 -0.077043 0.0049946
56 2 51.9375 48.0920982 53.361599 0.0053898 -0.018546 -0.0118158
57 2 56.8092003 52.2737007 51.0284996 5.5629702e-04 -0.0168867 -0.0312861
58 2 49.7943001 54.0653 46.4846001 0.0070788 -0.019674 0.0226685
59 2 48.2621002 44.5611 56.0970993 0.0026832 0.0026124 -0.0074843
60 2 51.2001 44.5466995 53.6691017 0.0032272 -0.0014674 -0.0082453
61 2 56.3983994 55.3084984 47.0681992 -0.0096537 -0.0083662 0.0194988
62 2 44.0751991 50.9058 49.3518982 0.0288038 0.0443672 0.0671256
63 2 43.1376991 57.4994011 50.7585984 0.002453 -0.006138 -0.0030773
64 2 47.0870018 50.1815987 54.2389984 0.0096494 -0.0104736 -0.0274438
