ITEM: TIMESTEP
160000
ITEM: NUMBER OF ATOMS
64
ITEM: BOX BOUNDS pp pp pp
0.0 100.0
0.0 100.0
0.0 100.0
ITEM: ATOMS id type x y z fx fy fz
1 1 52.7341995 45.3735008 43.8180008 -0.0434163 0.0271654 -0.0152355
2 1 43.9774018 49.3440018 44.5130997 -0.0217104 -0.0158197 -0.0417383
3 1 55.9258004 42.5354004 47.7070008 -0.0116016 0.0241707 -0.0051605
4 1 49.3951988 53.0541992 44.5811997 -0.111251 8.1271496e-04 -0.0340623
5 1 51.7095986 50.1603012 44.0670013 -0.04176 0.0257468 -0.0252
6 1 47.4553986 57.1082001 45.4141998 -0.0053461 -0.0498688 -0.0034317
7 1 55.1777 42.867199 43.4065018 0.0288445 -0.0345461 -0.0049361
8 1 47.3139992 43.8619004 46.5601998 -0.0144726 2.5703199e-04 0.0053834
9 1 46.5171013 53.3935013 47.0433998 0.0785487 0.0987725 -0.0230398
10 1 55.5653992 46.2680016 41.1988983 -0.0146571 -0.0106987 0.0069934
11 1 52.5852013 45.7780991 47.4794998 0.125563 0.007758 -0.0885367
12 1 47.8922006 52.4127998 41.2742005 -0.0115791 0.0058939 -0.0244434
13 1 40.4720993 51.3391991 48.5253983 0.0023256 0.0261312 -0.0062406
14 1 48.4683991 60.0303993 47.5270005 0.0188793 0.0090714 0.0024787
15 1 47.2029991 48.2070999 42.6096993 0.023303 0.04749 -0.0081707
16 1 48.1236992 47.0250015 49.3828011 -0.0153796 -0.0262366 0.0107506
17 1 42.2168999 53.3078003 45.3809013 0.0175844 -0.0113841 0.0239851
18 1 54.0437012 49.4157982 47.9189988 -0.0253081 0.0019335 -0.0153118
19 1 43.2751007 56.8019982 49.8091011 0.0169167 -0.0194973 -0.0141169
20 1 45.8460008 37.0567017 51.4192009 1.25437e-04 4.9593802e-04 -6.2838698e-04
21 1 52.3578987 54.3605003 46.0625 0.118639 0.0103352 0.147096
22 1 47.9258996 53.7262001 53.3328018 -0.0048072 0.004033 -0.0228507
23 1 48.2778015 56.7755013 49.4776993 -0.0233957 -0.0383678 -0.0150507
24 1 48.4179001 50.3592987 47.6744995 0.0266369 -0.0195824 0.058701
25 1 50.7280998 52.6559983 49.4514008 -4.0728498e-04 0.0178482 0.0048781
26 1 44.4259987 55.0210991 42.4394989 0.0157796 -0.0166174 0.0278535
27 1 51.7929001 47.9520988 51.6969986 -0.0165087 -0.0055845 -0.0418403
28 1 50.985199 42.2284012 43.3073006 0.0056424 0.036039 -0.0073452
29 1 44.8768998 52.8334999 51.0483017 0.0165382 0.0078168 0.0226025
30 1 51.3003998 57.9990006 44.6599007 -0.013597 -0.0226523 0.0121901
31 1 49.5289002 47.0583 45.9127008 -0.0304469 0.0179816 -0.072126
32 1 43.707901 49.5214997 48.4681015 0.0026837 0.0425439 0.0094287
33 2 56.582901 51.2574005 45.7201996 -0.0050916 -0.0117522 -0.0040657
34 2 53.3396988 42.911499 45.9620018 -0.0025752 0.0155975 -0.0112407
35 2 44.656601 46.7498017 48.8681984 0.0318734 -0.0345063 5.6659699e-04
36 2 50.8437996 51.865799 41.5848007 0.0123584 0.0026933 0.0207302
37 2 50.6139984 39.6007004 44.5751992 -0.0056479 -0.0356478 0.0222738
38 2 46.3760986 46.0868988 44.5009995 4.0882301e-05 -0.0168789 0.0374917
39 2 49.5134011 54.9342996 46.9730988 -0.0318884 0.0129685 0.0263751
40 2 55.9785996 46.1138001 46.8726998 -0.028457 -0.0082585 0.0023265
41 2 51.1936989 57.6152992 48.9650994 -7.1720204e-04 -0.0010977 -0.0164441
42 2 45.6214981 50.6791992 46.4760018 0.0243244 -0.0090931 0.0211194
43 2 51.3702011 54.896801 43.5041008 -0.0187866 0.0670959 -0.140885
44 2 51.8184014 44.3768005 56.9777986 2.6269501e-05 2.65093e-04 -5.52523e-04
45 2 40.8616982 55.2238999 47.9072 0.0221008 -0.0126028 -0.002079
46 2 54.7921982 52.556099 48.0945015 -0.0284402 0.002268 0.0014799
47 2 46.5597992 40.5331002 46.6096001 0.0060219 0.0135413 -0.0011002
48 2 45.8944016 52.0917015 43.4589005 -0.0252736 0.0087059 0.0360297
49 2 50.9622002 45.3622017 49.7000008 -0.090641 -0.0327333 0.127423
50 2 43.9398994 53.0275993 48.2546005 -0.0998784 -0.0134669 -0.0119947
51 2 48.3880997 50.2588005 44.7631989 0.0112574 -0.0442045 -0.0610834
52 2 51.1006012 51.7252999 46.5794983 0.005188 -0.0581273 0.0432936
53 2 48.4950981 49.6952019 50.9337998 0.0121135 0.013421 -0.0167186
54 2 47.5427017 55.4281006 42.4817009 0.010175 -0.0157979 0.0231212
55 2 42.9508018 61.0055008 48.1134987 0.0041994 -0.0071732 6.8595204e-04
56 2 54.5873986 44.8796006 50.5438004 -0.0104233 0.0041346 -0.0207177
57 2 44.7738991 55.8437004 52.7384987 0.0061401 -0.0142857 -0.0208403
58 2 53.1841011 47.9487 45.1991997 0.0313503 -0.0233733 0.0618394
59 2 44.4171982 55.4360008 45.7989998 0.0226012 0.0069313 -0.0036753
60 2 45.6987992 58.6397019 47.6077996 -0.0040734 -0.0217107 0.0074852
61 2 47.7933998 53.5796013 50.0728989 -0.0051233 0.001542 -0.0134529
62 2 50.7658997 48.1861992 48.3642006 0.0328651 0.0633917 0.0146072
63 2 52.7313004 44.1346016 40.7178002 0.0101034 0.0027522 0.0301674
64 2 50.3026009 44.0642014 46.0965996 0.021912 0.0039605 -0.0150422
