ITEM: TIMESTEP
174000
ITEM: NUMBER OF ATOMS
64
ITEM: BOX BOUNDS pp pp pp
0.0 100.0
0.0 100.0
0.0 100.0
ITEM: ATOMS id type x y z fx fy fz
1 1 51.6641999 46.1307983 45.3227005 0.0079288 0.0219719 -0.0354787
2 1 40.6917 52.9550018 42.8540994 0.008131 -0.0030985 0.0095861
3 1 54.8106003 46.7779007 49.2425995 -0.0232831 -0.0078495 -0.0113974
4 1 48.0026016 46.9868012 39.6208992 -1.9205302e-04 0.0223131 0.0263599
5 1 53.7318993 50.4039993 48.0635986 -0.0353365 0.0053948 -0.0030388
6 1 51.4622002 51.9291 39.1189003 0.0344566 -0.0152869 0.0189266
7 1 54.5306015 43.3366013 46.1553001 -0.0268047 0.0053071 0.01764
8 1 45.4258995 50.975399 45.2196999 -0.0191736 0.0223765 0.0500908
9 1 49.6353989 53.2975998 44.6918984 0.103082 0.0101734 0.0720826
10 1 47.1543007 52.5765 42.4956017 -0.0327202 0.0391045 -0.127144
11 1 48.5713005 44.2467003 46.3012009 -0.0123979 0.0214558 0.0113513
12 1 48.0237007 52.9883004 38.7289009 -0.020293 0.0088345 0.0228251
13 1 48.5106011 58.1711006 48.4359017 0.007591 -0.0310411 -0.0186587
14 1 55.7397003 46.7134018 40.5481987 -0.0100577 -0.0019647 0.0136203
15 1 43.8662988 51.1262016 41.6309014 0.001192 -0.0539399 -0.0163922
16 1 41.4168015 47.0999985 44.0355988 0.0011154 -0.005385 0.0489779
17 1 46.0653992 54.1608009 49.1242981 -0.0074748 0.0234609 0.0378905
18 1 50.8013993 47.1759987 49.6228981 0.0157424 0.0775714 -0.0407235
19 1 50.5206986 58.6837006 43.9415016 0.0196652 -0.0094954 0.0100519
20 1 45.2402001 47.4295998 43.3768005 -0.0872495 -0.0693586 -0.0248661
21 1 50.1775017 52.2229004 48.8330994 0.0150966 -0.007027 0.0021763
22 1 53.5904999 54.3916016 43.8499986 0.0449597 -0.0532599 0.0226849
23 1 48.3979988 56.0969009 42.3700981 0.0165612 -0.0039666 -0.0158705
24 1 47.7168007 49.7299004 47.8112984 0.0029347 0.0211763 0.0247273
25 1 53.9161988 57.4980011 40.5400009 -0.0192888 -0.0035273 0.0010884
26 1 49.7556 49.0354004 43.9194984 0.0123495 0.0835506 0.0098237
27 1 49.2083016 49.9958 52.3958016 -3.4821499e-04 -1.99024e-04 -0.0243561
28 1 52.3989983 43.8720016 50.5341988 0.01514 -0.0648143 0.109524
29 1 51.7654 55.7823982 46.7773018 -0.0096488 -0.0068237 0.0309497
30 1 57.4636994 57.3627014 41.6960984 0.0118088 -0.0026361 0.006638
31 1 41.9561006 51.5863991 47.2183991 0.0190797 -0.0089399 -0.0161709
32 1 46.2589989 54.8722 45.2505989 -0.0305618 0.0212089 0.0106161
33 2 51.7006989 49.9973984 50.4906998 4.66322e-04 0.0065644 -0.0075674
34 2 52.2812004 45.0331993 47.9830018 0.0180699 0.0298188 -0.0881403
35 2 47.1870003 51.5709992 50.4956017 0.0169628 -0.0088651 -0.0222668
36 2 42.4804001 47.8937988 41.3713989 0.0310754 0.0216054 -0.0186217
37 2 53.6738014 40.2117996 49.4359017 -0.0034007 0.0119032 -0.0024889
38 2 41.1619988 44.4667015 46.4112015 0.0056872 0.0123754 -0.0095029
39 2 52.2981987 51.7132988 44.8134003 -0.0092519 -0.0146199 0.0104224
40 2 46.368599 47.0938988 48.3112984 -0.0059415 -0.0233204 0.0246702
41 2 49.3876991 50.7112007 41.0778008 -0.0297603 -0.0031161 0.0042662
42 2 43.7402992 53.222599 43.7778015 0.0168019 0.0145983 0.025419
43 2 46.8596992 49.7522011 42.9538994 0.0399221 0.0067565 -0.0747057
44 2 45.2834015 45.2635002 45.8011017 0.0033372 0.0019321 -0.0126843
45 2 49.7106018 57.5708008 55.2002983 -2.7716701e-04 -0.0013656 -0.0015312
46 2 49.4445 44.5971985 49.882702 -0.0292279 -0.0684171 -0.0400733
47 2 42.2364006 49.6888008 49.7617989 0.0047245 0.0015692 -0.0089944
48 2 47.6236992 52.871399 47.0432014 0.0428295 -0.0595777 -0.036175
49 2 46.6296997 41.898201 41.4852982 7.9427004e-04 0.0033283 0.0016458
50 2 49.0955009 56.3348999 45.4931984 -0.0256535 -0.0051423 -0.0045173
51 2 50.6761017 49.3553009 47.1814995 0.018402 -0.0013565 -0.0066422
52 2 49.1906014 46.6689987 52.153801 -0.0082927 0.0359821 0.0365558
53 2 49.0270996 53.8404008 52.1433983 0.0028499 -0.0169431 0.001473
54 2 46.6748009 50.222599 38.2602005 0.0039813 -0.0105357 0.0157711
55 2 53.0052986 53.2061005 50.0363007 -0.0124733 -0.0105072 -0.0152858
56 2 51.5327988 41.3567009 45.5374985 0.0070366 0.0171232 0.0067627
57 2 49.3218002 55.0945015 49.1926994 -0.0104696 0.0280512 -0.0316963
58 2 54.7514 45.2099991 43.6763001 -0.0098376 0.0116789 -0.0059485
59 2 50.3526001 53.7593994 41.4585991 -0.0758696 -0.0931282 -0.0210501
60 2 51.8326988 56.0713997 42.3431015 -0.0166165 0.150429 0.011272
61 2 52.1450996 49.0475006 41.1994019 0.00122 -0.0010351 0.0074935
62 2 43.4915009 48.8451996 46.1183014 -0.0090623 -0.020396 -0.00643
63 2 48.983799 46.3753014 42.9277992 -0.0166769 -0.0359679 -0.0115193
64 2 47.2549019 47.9808998 45.3913994 0.0466465 -0.0147089 0.0565552
