ITEM: TIMESTEP
164000
ITEM: NUMBER OF ATOMS
64
ITEM: BOX BOUNDS pp pp pp
0.0 100.0
0.0 100.0
0.0 100.0
ITEM: ATOMS id type x y z fx fy fz
1 1 50.0003014 45.5444985 44.7701988 0.0713277 -0.0465085 -0.0355954
2 1 44.1209984 50.9295006 39.7169991 -5.6783805e-04 -0.0114595 -0.0064662
3 1 55.2318993 44.7834015 46.8100014 -0.0078833 0.0198995 -0.0168651
4 1 50.5467987 52.5463982 43.9855996 -0.0390913 0.0698551 -0.166294
5 1 55.0992012 47.8014984 44.2638016 -0.0249321 -7.4894204e-04 0.0108761
6 1 47.787201 55.9090004 43.7639008 -0.0353388 -0.0563355 -0.0037939
7 1 53.9553986 42.0250015 43.7258988 -0.0163306 0.0238759 0.0216841
8 1 46.8008995 43.8069 44.7257996 -0.0140967 0.0850895 0.0129729
9 1 48.2807999 54.2929993 48.5680008 -0.0418971 -0.033753 -0.0223719
10 1 49.0023994 46.8820992 41.3541985 0.0087133 0.0086795 -0.0098823
11 1 51.8946 44.9788018 48.9547998 -0.0395714 0.0507296 0.0312144
12 1 50.5035019 50.9504014 39.8792992 -0.0185623 0.0076213 0.0325095
13 1 42.1811981 55.8907014 51.1897011 0.0216083 -0.0049767 -0.0064777
14 1 51.8732986 60.8268013 44.2723007 -0.0118376 -0.0150876 4.92313e-04
15 1 46.4831009 47.6801987 43.8874016 0.0027886 -0.0239897 -0.0631997
16 1 46.5573998 43.8904 49.2064018 0.0201045 0.0890563 -0.0146594
17 1 45.2815018 51.7237015 47.6431999 -0.0249964 0.0339408 0.0397355
18 1 51.6621018 48.0189018 46.9664002 0.0126087 0.0586019 -0.0112746
19 1 42.6399002 59.4262009 49.0089989 0.0088305 -0.009211 0.003534
20 1 46.9404984 40.3824005 45.1605988 0.0089973 -0.0708405 0.023511
21 1 52.8251992 53.7657013 46.8913002 -0.0116317 0.0078307 -0.005157
22 1 48.9514008 57.6259003 52.6011009 -0.0015492 -0.0015382 -0.0147132
23 1 46.6281014 57.8530006 47.1497994 0.0078458 -0.02335 -0.0096193
24 1 48.2734985 50.3204994 46.3511009 0.0055694 -0.089924 -0.0129805
25 1 50.5306015 57.1212006 48.7055016 0.0077877 0.020275 -0.0169964
26 1 46.3977013 51.9872018 42.4374008 0.0356715 0.0650891 0.0749931
27 1 48.4775009 47.7139015 49.2042008 5.3392201e-04 0.0074286 0.0053524
28 1 53.1939011 41.8078995 48.4259987 0.022919 -0.0676165 -0.0272506
29 1 46.9883996 54.2834015 52.7106018 0.0016764 0.0035258 -0.0296308
30 1 50.9743996 55.9109994 41.596901 -5.12991e-04 -0.0071093 0.0210139
31 1 45.1515007 46.9030992 47.3984985 -0.0262043 0.0107045 0.0052353
32 1 42.1142006 49.1408997 47.1590004 0.0110635 0.0121015 -0.006034
33 2 53.9780006 50.4584008 46.3818016 0.0262273 -0.0202117 -0.0026471
34 2 52.3749008 43.9536018 46.0750008 0.0177663 -0.00612 -0.0241207
35 2 45.9215012 49.1123009 50.8927994 0.0107662 -8.90088e-04 -0.0219025
36 2 46.6337013 49.4068985 41.1967011 -0.022992 -0.0791007 -0.0615598
37 2 54.5691986 38.9636002 47.3697014 -0.005721 0.0139679 0.0015651
38 2 48.4151001 43.5060997 41.959301 -0.0063805 0.0329965 -0.0011489
39 2 50.1711006 55.8619996 45.6004982 0.0190787 -0.0321016 0.0318312
40 2 54.0768013 47.3457985 49.0013008 -0.0074859 -0.0138003 -0.0183082
41 2 52.7211991 58.0466003 45.5088005 -0.0081742 -0.0044319 0.0033239
42 2 45.297699 49.9085008 45.2755013 -0.0214987 0.0354319 0.0133186
43 2 53.2626 52.5951996 42.7979012 0.0231704 0.0018236 -0.0089685
44 2 46.9319992 41.0662994 49.1498985 0.0128839 -0.088805 -0.0162273
45 2 43.9528008 60.7156983 51.5942993 1.3609901e-04 -0.0048144 -0.0031862
46 2 52.4532013 50.2784996 50.0311012 -0.0089461 -0.0046847 -0.0199534
47 2 44.4343987 42.9575006 47.0042992 0.0237235 0.0074435 -0.0062175
48 2 47.8655014 52.9383012 45.0646019 -0.056321 0.0492512 0.012267
49 2 49.7546997 42.5786019 50.3790016 0.0077941 0.0013053 0.0338226
50 2 44.632 54.0581017 49.6132012 0.0080407 0.0110785 0.0261093
51 2 48.9089012 49.6442986 43.2116013 0.0320467 0.016464 0.0402434
52 2 51.0365982 51.3224983 46.4159012 0.017085 -0.06624 0.150979
53 2 48.8666 51.1281014 49.4129982 -0.0089514 -0.0040249 -0.0188857
54 2 48.6913986 53.8130989 41.0042992 0.0027248 -0.0148065 0.0252592
55 2 50.2592011 64.3864975 49.2775002 -1.7475101e-05 -7.44907e-04 -3.5789199e-04
56 2 55.4681015 43.7504006 49.6376992 -0.0163863 -0.0048474 0.0126349
57 2 43.9567986 54.1750984 53.2608986 -0.0099025 0.0036753 -0.0083108
58 2 53.1369019 45.6068001 42.6391983 -0.0059512 -0.0019593 0.0225536
59 2 45.3168984 54.6995011 46.5046005 0.0266341 0.0104149 -0.0071761
60 2 49.2305985 58.5242996 43.9333992 0.0247785 0.0312246 0.0012095
61 2 47.0161018 57.0836983 50.1220017 0.0108668 -0.0232066 0.0044745
62 2 47.8913002 46.7924996 46.2980003 0.0159272 0.0140475 0.0562858
63 2 49.6969986 41.7793007 44.2779999 0.0037781 0.0081269 0.0275554
64 2 49.603199 43.3596993 47.4457016 -0.0377427 0.0216829 -0.0483247
