ITEM: TIMESTEP
126000
ITEM: NUMBER OF ATOMS
64
ITEM: BOX BOUNDS pp pp pp
0.0 100.0
0.0 100.0
0.0 100.0
ITEM: ATOMS id type x y z fx fy fz
1 1 53.7649994 56.4444008 54.2863999 -0.0021449 -0.0080291 -0.0080907
2 1 42.101799 50.9431992 45.2812996 0.0327095 0.0292796 0.013568
3 1 51.714901 53.7024994 51.0466995 -0.0063634 -0.0119735 0.007538
4 1 50.9902992 47.1015015 45.1464996 0.0866439 -0.0675436 0.0258603
5 1 40.7159004 51.7765007 51.5741005 0.0233204 -3.2547e-04 0.0034769
6 1 45.6417008 49.3073998 43.8361016 -0.0212427 -0.0205329 0.0199347
7 1 51.2611008 57.885502 48.1119995 -0.0120944 -0.0211212 -0.0139259
8 1 55.7989998 52.7472992 51.6271019 -0.0167461 -0.0076583 -0.0072537
9 1 49.8134003 48.2512016 53.9439012 -0.007279 0.0175359 0.0364792
10 1 45.6459999 55.6910019 45.581501 0.008957 -0.0122948 0.0178084
11 1 49.2254982 52.0922012 48.4761009 0.0027187 -0.0198785 0.0063454
12 1 47.4306984 56.9301988 48.9852982 -0.040853 0.002615 -8.8571006e-04
13 1 51.6411019 47.9625016 40.25 8.34828e-04 0.0068341 -0.042628
14 1 47.1996002 48.6334 51.2815018 0.061433 -0.056234 -0.0948172
15 1 41.7938996 47.3362999 45.0607986 0.0163533 -0.0440556 0.0178429
16 1 52.767601 52.5368996 45.7587013 -0.034389 -0.0050376 -0.0017453
17 1 50.9569016 44.2238999 47.6227989 0.0977597 -0.131674 -0.0686484
18 1 46.6124001 52.4107018 53.0423012 -0.0124473 -0.0166308 -0.0268049
19 1 47.7988014 48.2485008 46.8964996 0.0147924 0.0062458 0.0091023
20 1 49.5187989 54.740799 45.8829994 -0.0038223 0.0290747 -0.0094052
21 1 43.3558006 54.7626992 52.7226982 0.0087624 0.0026077 -0.0121777
22 1 57.3883019 47.6305008 47.4592018 -0.0190872 0.0119782 -3.3959003e-04
23 1 54.8786012 49.6912003 42.3977013 -0.0231151 -0.0025847 0.0220707
24 1 45.5992012 51.6702004 47.2943993 0.0238551 0.0124269 -0.0144917
25 1 42.4444008 46.6811981 49.0844994 0.0215252 0.0148185 -0.024183
26 1 47.1665993 44.4912987 48.2868004 -0.0179901 0.029186 0.0031391
27 1 53.7905007 49.1949005 46.5093994 0.0227735 -0.0317902 0.0246883
28 1 45.487999 45.2556 44.3376999 0.0031868 0.0172614 0.0184683
29 1 55.1682015 48.6068001 50.8082009 -0.0357635 0.0114392 -0.0049277
30 1 48.7472 51.2579003 44.1935005 0.0250758 -0.0084771 0.0159307
31 1 49.2347984 45.212101 51.8044014 -5.4484296e-04 0.0050484 -0.0194362
32 1 50.9266014 49.2027016 50.5307999 0.0254951 0.0014288 -0.0196694
33 2 44.0830994 57.2179985 48.396801 0.0212234 -0.0109483 -0.0056794
34 2 56.9146004 51.0001984 47.4779015 -0.0175924 -0.0166004 -0.0010854
35 2 51.6557007 56.9836006 43.7523995 -0.0176228 0.0057815 -0.0092673
36 2 53.0041008 46.1974983 42.2841988 0.005718 0.0012621 0.0312161
37 2 52.5299988 55.4668007 46.3513985 -0.0015122 0.0133741 0.0395321
38 2 48.6301003 57.9690018 46.1554985 0.004158 -0.0264684 0.0112069
39 2 50.7097016 49.8474998 46.1824989 -0.0116426 0.0505717 0.0342852
40 2 38.2498016 46.6002007 46.4438019 0.0132989 0.0015585 -0.0023564
41 2 44.7781983 50.1674995 51.1092987 -0.0471721 0.0476346 -0.0042763
42 2 52.3428993 51.5908013 48.8739014 0.0018081 -0.0157682 -0.0164931
43 2 47.6599999 41.7066002 47.1296005 0.0077865 -0.0048141 -0.0043
44 2 43.3937988 49.8479004 48.1809006 -0.0364094 -0.0176235 -0.0048163
45 2 52.5833016 51.1148987 40.834301 0.0057922 0.007895 -0.0160047
46 2 48.6144982 47.6488991 43.6711006 -0.117187 0.0219491 -0.0228371
47 2 54.4300995 45.4678993 46.0537987 -0.0138014 0.020208 0.0044568
48 2 52.3838997 46.2678986 50.1116982 0.0432606 0.0081755 0.0134042
49 2 49.8162003 55.2030983 48.9426004 0.0370129 -0.03598 0.0033251
50 2 49.6220017 46.2533989 48.912899 -0.141665 0.169682 0.052561
51 2 51.2429009 49.1719017 42.8953018 0.0111309 0.0338823 0.0570818
52 2 44.9407006 52.4090004 44.2366982 0.0050178 -0.0050754 0.0169133
53 2 46.977501 49.1188011 54.108799 -0.0419108 0.0367485 0.0640708
54 2 51.8320008 40.5666008 49.4648018 -0.0031973 0.0079424 -0.0033446
55 2 44.7737007 47.4831009 46.4701996 -0.0030542 -0.0058254 -0.0095567
56 2 49.6091004 51.5508995 53.0108986 0.0125895 -0.0206094 -0.0216386
57 2 53.2210999 51.0264015 52.3028984 -0.0115762 -0.0025933 -0.0211235
58 2 55.5236016 52.6190987 44.2869988 -0.0049674 -0.0161362 -0.0015522
59 2 45.5264015 45.9193002 52.2139015 0.0179115 0.0139486 -0.0114315
60 2 42.1021996 44.0145988 46.2580986 0.0077334 0.0246644 -2.50545e-04
61 2 52.5702019 47.8186989 53.0489998 0.0451714 -0.0016481 -0.0294678
62 2 43.4277001 51.8039017 53.546299 -0.0018567 -0.003308 0.003075
63 2 47.6357994 56.2923012 52.3638001 -0.0032793 -0.0125498 -0.0188282
64 2 46.5088997 53.5681 49.7715988 0.0125195 -0.0012686 3.58286e-04
