ITEM: TIMESTEP
188000
ITEM: NUMBER OF ATOMS
64
ITEM: BOX BOUNDS pp pp pp
0.0 100.0
0.0 100.0
0.0 100.0
ITEM: ATOMS id type x y z fx fy fz
1 1 49.0950012 40.9028016 43.7965012 -0.0374064 -0.0025175 -0.041336
2 1 43.2027016 55.6133003 41.9221992 0.0059546 -0.0076048 0.022261
3 1 51.4215012 49.7178002 46.6960984 0.0086996 7.7395296e-04 -0.045975
4 1 43.7571984 48.2100983 43.6409989 -0.0084948 -0.0581579 -0.0334824
5 1 53.8412018 45.0499001 45.8176995 -0.0164586 0.0100493 -4.72614e-05
6 1 51.3967018 46.4714012 40.3101998 -0.0095565 0.0024232 -0.0525543
7 1 45.3311997 43.6380997 43.7756996 -0.0275809 -0.0132468 -0.007644
8 1 49.4838982 57.1945992 39.4768982 0.0129325 0.0190955 0.0086654
9 1 52.7369995 53.2481995 42.5178986 -0.0168722 -0.0370936 0.0136361
10 1 47.1744995 54.3638001 39.6416016 -0.0137613 -0.0361782 0.0332618
11 1 44.9659004 51.8114014 42.1512985 -0.0222846 -0.103011 -0.0134866
12 1 44.6049996 45.857399 40.0433998 0.003661 -0.0186186 0.0172189
13 1 53.3450012 52.948002 47.1601982 0.0031022 -0.0117378 0.0050758
14 1 47.8768998 44.0758019 46.4808998 -0.0095558 0.0322405 -0.0023933
15 1 41.0018997 52.4930001 40.5474015 0.023931 0.0060584 0.0140508
16 1 45.7270012 51.358799 47.3202019 0.0016918 0.0473473 0.0867768
17 1 51.6123009 55.9384996 49.3163986 0.0185952 0.0212218 0.0032587
18 1 45.8470002 47.6553002 46.9637986 0.0208207 -0.0203878 -0.0376042
19 1 58.8063011 60.2489014 47.7419014 -1.97822e-04 -1.41054e-04 4.5327201e-05
20 1 48.7958985 50.2877007 39.3776016 -0.001141 0.0079611 0.0198636
21 1 49.2486 51.8807984 49.4141007 -0.0176168 -0.0585076 0.0301153
22 1 53.0122986 48.9225998 42.600399 0.0040757 0.0604656 0.0078378
23 1 49.8899994 55.9678994 43.3106995 -0.0134533 -0.0298366 -0.0017446
24 1 48.705101 52.6936989 45.6478997 -0.0138456 -0.0352564 -0.0469565
25 1 53.0166016 52.2994003 37.9515992 0.0027298 0.0175025 -0.0100559
26 1 48.135601 48.9858018 42.9656982 -0.0038114 0.007666 0.0293983
27 1 50.1562004 54.4235001 52.4230995 0.0064411 -0.0182443 -0.0040557
28 1 47.6296005 51.0612984 52.8151016 0.0029452 0.0058429 -0.0035116
29 1 55.3200989 49.8502008 48.2963982 -0.0169053 -9.1690998e-04 -0.0093302
30 1 48.3754006 44.9700012 42.0597992 0.0527736 -0.0274569 -0.024752
31 1 45.4696007 54.9336014 45.5620003 0.0081562 -0.0070596 4.25388e-04
32 1 46.3465004 58.0875015 43.0848007 0.0103923 -0.0301554 0.002381
33 2 48.3832016 49.6809006 46.8064003 -0.0205985 0.0140462 -0.00392
34 2 49.6062012 46.3069992 49.6172982 -0.0141266 -0.0125558 -0.0124258
35 2 47.1172981 54.4637985 48.8107987 0.0107178 -0.0228373 -0.0198459
36 2 49.8871994 48.9023018 53.0365982 0.0031162 0.001523 -0.0098113
37 2 45.3856011 40.462101 43.2582016 0.0124281 0.0118624 0.0014248
38 2 46.0133019 54.4009018 42.5862007 -0.0429004 0.166738 0.0089387
39 2 50.5957985 50.7647019 43.7304001 0.0260156 -0.007054 0.01632
40 2 37.7183991 48.1842003 47.6818009 4.4028998e-04 1.72268e-05 -1.7537401e-04
41 2 51.3720017 46.5368004 43.2571983 -0.0025225 -0.03056 0.0180934
42 2 48.6030998 57.9135018 45.5211983 -0.007176 -0.0138326 -0.0114197
43 2 48.4744988 52.8709984 42.6789017 0.0750838 -0.042156 -0.0469015
44 2 45.4782982 50.2980003 44.6697006 0.0618764 -0.0075772 -0.0271332
45 2 55.3075981 44.5780983 49.3941994 -0.0047309 0.0030861 -0.0091804
46 2 43.8050995 45.1669998 46.1842003 0.0205458 0.0119212 -0.0122554
47 2 59.7127991 51.1208992 49.1459007 -0.0037773 -9.0107803e-04 -7.4182997e-04
48 2 50.4509011 53.8082009 47.6492005 0.0452362 0.0441382 -0.0207155
49 2 41.9626008 53.2470017 44.1231995 0.0221202 0.0034447 -0.0223407
50 2 52.4855995 55.024601 45.0901985 -0.020563 0.0068979 -0.0095549
51 2 46.5214005 46.4477005 43.7304993 -0.0480361 0.0501032 0.0535872
52 2 53.6781006 42.2011986 55.6771012 -5.7670999e-06 1.0078399e-04 -1.64431e-04
53 2 51.2879982 49.0144005 49.6282997 0.0028617 0.0289308 0.0170815
54 2 50.8734016 54.5886994 40.4803009 -0.0182706 -0.0078397 7.97076e-04
55 2 53.5237007 55.4863014 51.766201 -0.0131379 -0.0088781 -5.8263803e-04
56 2 49.4630013 46.7036019 45.6147995 -0.0387303 0.0115164 0.0329662
57 2 52.7837982 52.0152016 50.8765984 -0.0168296 0.0087821 -0.0188816
58 2 50.4057999 42.5279999 45.884102 0.0375189 0.0228409 0.022184
59 2 51.7461014 50.9908982 40.3069 -0.0161479 -0.0150134 0.0486873
60 2 54.2448006 50.4757004 45.0430985 -0.0200586 0.0095121 0.0195812
61 2 48.9724998 41.9877014 40.5881996 -0.0041243 0.0104084 0.0206523
62 2 44.0377007 53.5122986 39.8731996 -0.0030604 0.0048157 -0.0268873
63 2 42.9261018 43.1808014 40.0108986 0.0050879 0.0018804 0.0055198
64 2 45.7230988 48.5136986 40.9281006 0.0137879 0.0341208 0.0277613
