ITEM: TIMESTEP
196000
ITEM: NUMBER OF ATOMS
64
ITEM: BOX BOUNDS pp pp pp
0.0 100.0
0.0 100.0
0.0 100.0
ITEM: ATOMS id type x y z fx fy fz
1 1 47.9241982 41.9813996 46.6719017 0.0384952 0.0110633 0.0160315
2 1 46.4718018 54.5348015 46.5808983 -0.0173524 0.0345713 -0.0637504
3 1 50.6134987 50.4724999 48.9099008 -0.0262803 0.0192247 -0.0262436
4 1 44.9371986 46.9174004 46.3564987 0.0302211 -8.1467094e-04 0.0019265
5 1 51.4133988 44.3319016 46.3003006 -0.0134403 -0.0020012 0.015252
6 1 44.8213997 48.7550011 40.2692986 0.0174577 -0.0189514 -0.0751115
7 1 42.5614014 49.5750008 45.296299 -0.0137455 0.0260501 0.01445
8 1 55.0717011 55.6422005 42.4073982 -0.0164979 -1.89582e-04 0.006375
9 1 51.6959 50.7366982 42.6604996 -0.0056541 0.0099964 0.0110165
10 1 51.2340012 54.3594017 41.0150986 0.0083866 -0.0094092 0.0108204
11 1 45.3204003 51.8204003 43.6940003 0.0351795 0.0158091 0.0014362
12 1 41.9485016 51.4782982 40.6907997 0.0119381 -0.0112854 0.0169746
13 1 55.5746002 49.7723007 43.8320999 2.4598301e-04 0.013988 -0.0230951
14 1 46.1651993 43.9169006 44.2626991 -0.0317571 0.0241885 -0.0478983
15 1 48.5679016 57.1781006 42.1713982 0.0068574 0.0053721 0.0104293
16 1 46.9599 50.1048012 49.1747017 -0.0370015 -0.0600463 -0.0227946
17 1 54.5773011 52.494999 46.7346993 -0.0197021 0.0537342 -0.0039945
18 1 48.7486 47.1778984 47.3792 0.0443865 0.138962 -0.0337562
19 1 52.9347992 57.9530984 45.0848007 -0.0217429 0.0680171 -0.037549
20 1 49.6735993 51.1986008 39.299099 0.0010395 -0.0079376 0.0195551
21 1 54.0517998 49.6184998 48.8194008 0.0523766 -0.0287359 0.0311219
22 1 49.6837998 44.5365982 42.4833985 -0.0122783 0.0179154 -0.0083355
23 1 52.1318016 54.4710999 44.7529984 -0.0321428 -0.043684 0.0010867
24 1 49.0112 52.1416016 45.344101 -0.0470818 0.0772946 -0.0199251
25 1 54.2400017 49.3109017 39.9822006 -0.0023412 -0.0055149 0.0200541
26 1 47.9379006 48.1500015 43.4602013 0.0203956 -0.0546956 0.05293
27 1 52.9816018 53.539299 50.6152001 -0.0113379 -0.0196938 -0.0563616
28 1 43.9996986 56.1864014 48.8698998 -0.0034804 -0.001056 0.0057384
29 1 51.9855004 47.4627991 44.4415016 -0.0133381 -8.5038405e-04 0.0015364
30 1 43.2018013 45.9766998 43.1203003 9.6756001e-04 0.0370043 -0.0169531
31 1 50.8123017 56.4667015 49.0974007 0.0030627 -0.0172551 -0.0272871
32 1 51.882 58.5601006 40.7473984 0.0078581 -0.0132277 0.0099377
33 2 53.5901985 54.3269005 53.4098015 0.0064268 0.0098958 0.0327645
34 2 46.4706993 47.0214005 49.2016983 -0.0431951 -0.0022112 0.0206691
35 2 47.4342003 52.943802 48.8013993 0.0457418 0.0212815 0.0330516
36 2 42.0779991 58.4916001 56.3186989 4.0734601e-05 -3.23627e-05 -9.3050299e-05
37 2 49.5926018 44.9975014 49.0581017 0.0260698 -0.0574363 0.0231876
38 2 49.2047005 56.7154999 46.2448006 0.0081296 -0.0207797 -0.0021928
39 2 50.3734017 49.7270012 45.8494988 -0.0212182 -0.109069 0.0136169
40 2 45.7644005 50.5126 52.036499 9.3859596e-04 6.1388302e-05 -0.0051806
41 2 46.1515999 46.1077995 41.848999 0.001479 0.0083156 0.0137466
42 2 53.9566994 55.9482994 46.9415016 0.0066545 -0.0606195 0.0368676
43 2 47.4085999 50.1274986 41.4117012 -0.007206 0.0527063 -0.0337237
44 2 46.4841995 49.5752983 45.7088013 0.0165158 0.018583 0.0180424
45 2 52.1748009 47.4878998 47.7542 -0.0394165 -0.0250804 -0.0160835
46 2 44.1048012 49.4889984 47.8974 0.0083613 0.005722 0.025601
47 2 54.0325012 44.2891998 48.4634018 -0.0154121 0.0065967 -0.0102641
48 2 51.2845993 53.4616013 47.9454994 0.0020126 -0.0026271 -0.0225724
49 2 43.3498001 52.7710991 45.943699 0.0134779 -0.0107037 0.003498
50 2 54.1321983 52.6831017 42.0143013 0.0029343 9.1272698e-04 0.0515182
51 2 41.0321007 46.8005982 45.1973991 0.0187431 0.0123388 0.0038586
52 2 52.0704002 38.2438011 57.5427017 0.0 0.0 0.0
53 2 53.3708 49.8871994 45.8347016 0.0175884 0.0025322 -0.0061477
54 2 52.8087006 51.9199982 39.3686981 -0.0438522 0.0067083 -0.0242614
55 2 48.4864998 55.8097992 51.149601 0.0015517 -0.0056578 -0.0094265
56 2 48.6072006 45.3899994 45.1651993 0.012617 -0.0272127 -0.041877
57 2 57.5077019 53.0066986 46.2001991 0.0123256 0.0011745 -0.0071266
58 2 47.6473007 40.0438004 48.9840012 -0.0012314 -0.010469 0.0139885
59 2 52.5068016 43.4751015 42.9878006 0.0047099 0.0071154 0.0172921
60 2 50.4732018 47.5056992 41.621399 -0.0010628 0.0152857 0.0145823
61 2 38.632 44.6402016 45.6104012 -0.006786 -0.0068246 6.8762002e-04
62 2 48.3251991 54.2187996 42.8126984 0.0112578 -0.0343582 0.0168254
63 2 41.2060013 49.0639992 42.6516991 -0.0022878 -0.0083208 -0.0244765
64 2 44.4855995 49.0381012 43.0699997 0.0103983 -0.0456704 0.080011
