ITEM: TIMESTEP
176000
ITEM: NUMBER OF ATOMS
64
ITEM: BOX BOUNDS pp pp pp
0.0 100.0
0.0 100.0
0.0 100.0
ITEM: ATOMS id type x y z fx fy fz
1 1 51.9126016 46.9648018 45.8717996 -0.0152641 0.0174637 0.0040317
2 1 41.2434006 49.0955009 43.9257012 -0.0376355 0.005638 0.0237012
3 1 54.1946983 46.9662018 48.8947984 0.0143537 -0.0685251 -0.0254086
4 1 49.6638985 47.4645005 40.2528 -0.0026871 -0.0084891 0.0079413
5 1 53.3539009 51.0313988 46.2689018 -0.0268063 -0.0335512 0.0121368
6 1 52.4588013 50.7454987 40.0167007 -0.0251142 0.0381624 -0.027606
7 1 53.3247986 43.3033981 47.3378983 -0.0184662 0.0225136 0.0087055
8 1 44.2494011 50.993599 44.1357994 0.122032 -4.4052301e-04 -0.0371151
9 1 50.7140007 53.2557984 44.4668999 -3.6383901e-04 0.0194888 0.0142278
10 1 47.2537003 53.4636002 41.6068001 -0.0093485 0.0010565 0.0090566
11 1 48.2840996 46.0192986 45.8837014 -0.004267 0.0021803 0.0011668
12 1 47.7657013 53.6731987 36.4712982 -0.0040763 -9.9959402e-04 0.0160157
13 1 50.4595986 57.2593994 47.2715988 0.0302189 0.138178 -0.0193194
14 1 52.9201012 48.1761017 42.5192986 0.0448417 -0.0840792 0.0068045
15 1 42.776001 52.7290001 41.2943993 0.0030435 0.0232731 -0.0148386
16 1 41.6048012 45.2728996 46.5362015 0.026314 0.0243924 -0.0132786
17 1 46.7321015 53.1044006 47.8410988 -0.0096966 0.110265 0.0270899
18 1 49.6529007 48.0495987 49.0014 0.0609422 0.062256 0.0533503
19 1 53.5702019 57.6124001 44.7533989 -0.0372442 -0.0249156 0.0101222
20 1 45.1906014 45.9347992 43.1966019 0.0320868 -0.0197472 0.0196714
21 1 50.2876015 51.8297997 48.2575989 -9.5375405e-04 -0.0142064 0.0480609
22 1 54.8560982 51.8240013 43.0582008 -0.0105588 -0.0031317 -0.0152364
23 1 50.2100983 57.0909004 40.5088005 0.0069392 -0.0246195 0.012221
24 1 47.0834007 49.7991982 47.1749992 -0.0040278 -0.0105366 -0.0824134
25 1 54.277401 55.1787987 41.5788994 0.0674274 -0.0080179 -0.0383083
26 1 48.5914002 50.4382019 43.4001007 0.0237566 -0.0961674 -0.0490643
27 1 49.4744988 49.9814988 52.6348992 -0.0449116 -0.0743818 -0.0614788
28 1 50.9112016 44.2766991 51.3758011 -0.0178385 -0.0580486 -0.0413529
29 1 52.7784996 54.5791016 47.7737999 0.0257992 -0.0225493 -0.009711
30 1 57.0203018 57.482399 43.6738014 0.0279449 -0.0063929 -0.0136821
31 1 43.0688019 51.4911995 47.3987999 -0.0136178 -0.0144835 0.055483
32 1 47.7835007 55.7554016 45.2346001 -0.0185002 -0.0366592 -0.0267523
33 2 52.8790016 49.2443009 50.0388985 -0.0525671 0.0891439 0.0022876
34 2 50.6722985 45.4481011 48.2974014 0.0354279 -0.066347 -0.0159037
35 2 47.3672981 49.7729988 50.3894005 -0.0048042 -0.0071168 -0.0231451
36 2 42.2789002 46.4626999 43.0584984 -0.0196464 -0.0281794 0.0019875
37 2 51.4490013 40.6901016 49.8111992 0.0014226 0.0156633 -0.0027637
38 2 40.7094994 48.7748986 48.6288986 0.0125899 0.0014268 -0.012546
39 2 51.6483002 50.7137985 42.9385986 -0.0249812 0.0765907 0.0374665
40 2 46.8876992 47.2020989 48.3658981 -0.0434309 -0.0895621 0.0208207
41 2 49.0985985 50.4664994 39.9598008 0.0046299 0.0231422 0.0252163
42 2 44.7869988 54.5834999 43.7207985 0.0127056 -0.0217312 -0.0091567
43 2 45.3097 50.9995996 40.841301 0.0160055 -6.8804998e-05 0.0219359
44 2 45.1437988 44.8082009 46.642601 -0.0099112 0.0201339 -0.0252165
45 2 51.1188011 52.0211983 53.7206002 0.0578608 0.0743604 0.0310404
46 2 47.8120995 43.6535988 48.0623016 0.0152572 0.0076959 0.00206
47 2 39.0657997 56.7843018 50.0852013 1.09562e-04 -1.7171101e-04 -7.5152397e-05
48 2 47.1892014 52.4471016 44.7891999 -0.0490364 0.0807679 0.0596059
49 2 46.2751007 44.5847016 40.6800995 -0.0091216 -0.0053758 -0.0257572
50 2 51.8218003 55.7364006 42.8919984 -0.0717558 0.0595523 0.103938
51 2 50.1833 49.6563988 46.2681999 -0.0048214 -0.0320661 -0.0415246
52 2 51.7140999 47.0059013 51.905899 -4.17272e-04 0.0558581 0.0092364
53 2 48.6870995 52.6449013 50.8017998 -0.0159996 0.001144 -0.0033172
54 2 44.949299 54.050499 39.2462006 0.0097345 -0.0072177 0.0119148
55 2 51.6568985 53.7164994 50.6458016 0.014561 -0.0016841 -0.018504
56 2 52.5577011 41.9836006 44.6105995 -0.0014068 0.0056036 -6.9735198e-04
57 2 49.4928017 54.6498986 47.7293015 -0.0396416 -0.0869556 2.46555e-04
58 2 54.3030014 45.7915001 44.2342987 -0.0085582 0.0014686 0.0034829
59 2 51.1025009 53.8754998 40.662899 -0.0139651 -0.0500246 -0.0336325
60 2 55.5820008 54.8590012 44.6282006 -0.0265596 -0.0039519 -0.0113052
61 2 49.9304008 47.8027001 43.2598992 0.0352697 0.0078449 0.0473576
62 2 43.6473007 47.9090996 46.6138993 -0.0044966 0.0124399 -0.0114536
63 2 48.4827004 45.1711006 42.8588982 -0.0159534 -0.0254826 0.0091471
64 2 46.4040985 48.1843987 44.7089997 0.0171785 0.0381742 -0.0069665
