ITEM: TIMESTEP
102000
ITEM: NUMBER OF ATOMS
64
ITEM: BOX BOUNDS pp pp pp
0.0 100.0
0.0 100.0
0.0 100.0
ITEM: ATOMS id type x y z fx fy fz
1 1 40.977501 43.1114998 57.0126991 3.84413e-04 2.0831399e-04 -1.70409e-04
2 1 45.0456009 44.5760002 48.1548004 0.0102074 0.0184742 0.0045288
3 1 48.1991997 52.0399017 49.5835991 0.115812 0.0411078 0.0225071
4 1 54.1022987 51.3177986 44.132 -0.0267311 0.0062278 0.0048742
5 1 46.2560005 43.8114014 44.1403999 0.01492 0.0131835 0.0208047
6 1 44.1557007 56.3146019 46.8972016 -0.0268497 -0.0130258 0.0037823
7 1 45.0247993 50.9376984 49.0620995 -0.0809223 -0.066991 0.0403968
8 1 47.7952004 56.2541008 46.6843987 0.0236596 -0.0128941 0.0114007
9 1 50.4919014 48.9193994 52.2142983 -0.0363602 0.0041804 0.0184838
10 1 45.4243012 47.7291985 44.5228997 0.0182113 -0.0161507 0.0150652
11 1 47.2821999 50.0573006 54.4950981 0.0087079 -0.0224222 -0.012034
12 1 48.2644997 54.4818001 54.0974999 -0.013974 -0.0164316 -0.0104908
13 1 40.1999016 55.7444 45.4375992 -0.0029215 0.0294128 0.0058714
14 1 52.5322991 49.5528984 49.0363998 0.0364683 -0.0234253 -0.0085339
15 1 48.7807999 43.6104012 49.2551994 -0.0181444 2.9993702e-04 0.0146128
16 1 43.4155007 50.5043984 45.7784004 -0.0605528 -0.0037743 0.0152467
17 1 49.9155998 46.8810006 44.2919998 -0.0203446 0.0056368 -0.0010328
18 1 52.8134995 51.1458016 53.9406014 0.0016922 0.0833569 0.0400727
19 1 55.7047005 51.3883019 51.3459015 -0.0206187 0.0074915 -0.0156727
20 1 47.7806015 47.2598992 47.5592003 0.0191706 0.0027157 0.0076841
21 1 51.9258004 44.8140984 47.5644989 -0.0207319 0.0044773 0.134746
22 1 50.9673996 55.0780983 51.4595986 0.0173063 -0.0530942 -0.0283861
23 1 40.8925018 52.7863007 48.6660004 0.0124453 -0.0041072 -0.0032947
24 1 49.6338997 52.830101 43.8202019 0.0527485 -7.3312702e-04 -0.0548733
25 1 47.6773987 46.4511986 51.4748993 0.0151714 0.0332667 0.0058851
26 1 56.0143013 46.9575996 49.6701012 -0.0203016 0.0230735 7.7600603e-04
27 1 49.8005982 50.3246994 46.4385987 -0.0853792 -0.0578155 -0.0323326
28 1 54.1161003 47.2645989 45.4485016 0.0749792 0.149022 0.0485199
29 1 51.6394005 52.9432984 47.6968994 0.0570556 0.0496274 0.0962883
30 1 46.3412018 52.3675003 44.9850998 0.0267083 0.0938081 -0.107646
31 1 56.8396988 51.985901 46.5181999 -7.3930597e-04 0.0014779 0.0334714
32 1 56.1531982 48.2574005 53.3656006 -8.49469e-04 -0.0038821 -5.3261099e-04
33 2 46.6455994 50.0648003 46.5513993 0.0125892 -0.111721 0.077461
34 2 46.1853981 59.1963005 47.8686982 -7.96237e-04 -0.0244075 -0.0094062
35 2 47.1944008 49.5223999 51.2739983 -0.0348274 0.0211645 0.0371469
36 2 54.5404015 52.9355012 48.9333992 0.0052799 -0.0072543 -0.0211715
37 2 45.9934006 53.337101 51.6557007 0.0225839 -0.0127761 -0.0073749
38 2 47.910099 49.2947006 43.492199 0.0177107 0.0148321 0.0218681
39 2 51.5421982 49.6730995 43.9101982 -0.0206631 -0.0118713 0.0116359
40 2 49.2140007 43.8633996 46.2527008 -0.0070991 0.0252793 -0.024019
41 2 45.9367982 43.9905014 51.7699013 -0.0049491 -0.0094193 -0.0171058
42 2 49.5211983 49.1790009 49.389801 0.0126675 -0.0019573 -0.0546572
43 2 52.0479012 51.9836998 50.8002014 -0.0255882 0.0085064 0.0210898
44 2 45.1179009 58.1405983 44.1859016 0.0014219 -0.0112452 0.0187621
45 2 60.1147003 54.4634018 50.7444992 -0.002259 -0.0021191 -4.8684602e-04
46 2 52.4224015 45.1666985 44.8300019 -0.0780957 -0.110371 -0.159588
47 2 44.5845986 53.1320992 47.1268997 -0.0298512 0.0303435 -0.0139614
48 2 41.3305016 53.0126991 45.6492996 0.0314686 -0.0385981 -0.0059058
49 2 42.8387985 47.4627991 46.8557014 0.0266304 0.0072439 -0.0039021
50 2 52.3690987 45.8203011 50.7481995 -0.0053872 0.0199834 -0.0161218
51 2 51.9771004 54.2556 45.1105003 0.0206915 0.018549 -0.0377638
52 2 47.6324997 39.3292008 47.3149986 6.7304597e-04 0.005468 4.9622998e-04
53 2 49.0523987 47.2598 54.6027985 0.0224188 0.0191332 -0.0380789
54 2 53.5391007 49.2103005 51.9616014 0.0312435 -0.0671732 -0.0650798
55 2 51.1460991 47.7659989 46.9059982 0.0293481 -0.0457481 0.0138195
56 2 48.9768982 51.8298989 52.6652985 0.0335192 0.0064331 -0.0191309
57 2 49.3050003 57.1422005 52.8684006 -0.004644 0.0294232 0.0326622
58 2 48.2453995 55.9613 50.1576996 -0.0152229 -0.0274338 -0.0358091
59 2 58.0951004 49.6898995 50.3381996 -0.0127336 -0.0137908 1.43995e-04
60 2 46.3056984 46.7961006 55.9929008 -0.0241462 0.0054627 0.0045687
61 2 48.8084984 53.2566986 46.7102013 -0.032098 0.0044424 0.0177355
62 2 45.3857002 47.4744988 49.6180992 -0.0089364 -0.0041061 -0.0253346
63 2 43.415699 54.2410011 49.6787987 -0.0071444 0.0222267 0.0338449
64 2 50.3218994 50.3937988 55.4651985 -0.0240322 -0.0108016 -0.0063565
