ITEM: TIMESTEP
182000
ITEM: NUMBER OF ATOMS
64
ITEM: BOX BOUNDS pp pp pp
0.0 100.0
0.0 100.0
0.0 100.0
ITEM: ATOMS id type x y z fx fy fz
1 1 50.0978012 43.6204987 46.5904007 0.0201134 0.0151884 -0.0184594
2 1 42.3742981 56.7085991 45.175499 0.0194824 -0.002351 -0.0030827
3 1 50.4303017 42.9672012 50.7029 -1.4155899e-04 0.0136544 -0.0174693
4 1 43.6408997 46.1623993 41.5036011 0.02428 -0.0140459 0.0033659
5 1 53.5900002 49.0116005 46.7733002 -0.0028066 0.0303297 -0.0020133
6 1 52.1551018 52.2328987 41.1012001 -0.049729 -0.0038205 -0.0291276
7 1 45.3647003 41.6180001 41.3314018 8.6519795e-04 -0.0096688 0.0063701
8 1 45.4468003 55.9197006 42.1437988 -1.99406e-05 -0.0290692 0.0080891
9 1 51.7853012 51.9604988 44.6165009 0.0212159 -0.0091742 0.0302308
10 1 48.2701988 52.9805984 41.1604004 0.028179 0.0132174 -0.0161139
11 1 43.4777985 48.1329002 44.8120995 0.0175633 0.0131252 0.0068826
12 1 47.5609017 44.7425003 40.6150017 0.0686325 0.0468747 -0.015652
13 1 51.6338005 59.4784012 45.7759018 -0.0099039 -0.0113392 -0.0014312
14 1 53.3511009 46.2410011 42.7672005 -0.0105664 0.019671 0.0026016
15 1 41.3787003 55.6852989 39.8102989 0.0055394 0.0016698 0.0045689
16 1 45.5359993 49.1776009 50.0186996 -0.0444128 -0.0898933 -0.0710567
17 1 47.9417 56.3786011 47.7573014 -0.0274803 0.01806 -0.0032368
18 1 48.2406998 46.3658981 48.3278999 0.0166604 0.0155141 0.0054193
19 1 55.0974007 54.1090012 42.4462013 -0.0054782 -0.0095107 0.0156358
20 1 44.4123001 50.5365982 40.986599 0.0177416 -0.0036443 0.0155219
21 1 48.0371017 51.8614006 48.0536995 0.0677265 -0.0140027 0.0220139
22 1 54.7256012 49.7713013 41.3771019 0.155599 0.0597492 0.0668985
23 1 49.3011017 56.3496018 44.0346985 0.0012054 -0.038361 0.0366843
24 1 47.8022003 49.0648003 45.5266991 0.0909291 0.0835805 -0.0509517
25 1 51.8330002 55.0126991 38.7401009 -0.0101581 0.0166615 0.0030549
26 1 50.2220001 48.4378014 42.3003998 -0.0215745 0.0084596 0.0122373
27 1 49.8754006 52.5849991 51.4905014 -0.0058227 0.0792171 0.0146062
28 1 53.2487984 49.4583016 50.6416016 -0.021745 -9.3089399e-04 -0.0147389
29 1 52.7751999 52.6362992 48.1310005 -0.0252216 0.0011527 0.0119946
30 1 54.5769997 48.2154999 37.5957985 -0.0051089 0.0030673 0.0131814
31 1 45.5200997 54.3464012 46.0047989 -0.0084882 -0.0278336 -0.0327943
32 1 46.6543999 58.5466995 44.8515016 -0.0522639 0.02547 0.0193502
33 2 51.6477013 46.8246994 49.1724014 -0.0139452 0.0316094 -0.0053368
34 2 47.1183014 43.5395012 47.2851982 -0.0077742 0.01335 -3.8206601e-04
35 2 45.3406983 50.9311982 47.2753983 -0.0240852 -0.0218585 -0.0189046
36 2 46.7276001 46.0752983 54.9030992 2.86929e-04 5.2199102e-04 -0.0015818
37 2 48.8773994 39.2528992 42.681099 -0.0039765 0.0048327 -9.94592e-04
38 2 46.3274002 52.6002007 43.3737984 -0.072749 0.0212246 0.023648
39 2 52.8344994 49.2921982 43.6805992 -0.0017631 -0.0153639 0.0122076
40 2 45.9485016 47.1930008 46.4471016 -0.0921233 -0.0899775 0.045867
41 2 52.6934014 48.3204003 40.1763001 -0.124513 -0.0852513 -0.0501822
42 2 45.0209007 57.7359009 48.3233986 0.0111422 -0.0134634 -0.0181709
43 2 49.0007019 51.1649017 43.6819 0.0460349 -0.0168464 -0.0107202
44 2 43.3344994 47.4420014 48.7517014 -5.6134801e-04 -0.001731 -0.0147611
45 2 60.4841995 45.9592018 55.1896019 0.0 0.0 0.0
46 2 46.3618012 43.9309998 43.1512985 -0.0223334 8.4352398e-04 0.0502852
47 2 54.8451996 59.989399 50.1473999 -9.03123e-04 -3.48788e-04 -0.0010358
48 2 50.7350006 50.3622017 47.2630997 0.0101149 0.001668 -0.0807829
49 2 44.471901 47.3823013 38.8036003 0.0075112 0.0095932 0.0024205
50 2 49.7733994 53.4967995 46.1750984 -0.0220232 0.0331099 -0.0035031
51 2 48.8816986 46.0629005 44.6898995 -0.0045581 0.0119539 0.0106549
52 2 50.1506996 50.0597 50.1762009 -0.0098085 -0.0805651 0.0099501
53 2 46.0409012 53.8367996 49.0243988 -0.0109665 0.0342519 0.0078186
54 2 47.117199 54.7983017 38.1650009 0.0039482 -0.005772 0.0169828
55 2 46.9945984 51.3282013 51.0685997 0.0753556 0.0986194 0.0377697
56 2 52.1025009 46.6484986 45.7089997 -0.0276653 -0.0291081 -0.0129014
57 2 50.3237991 55.164299 48.9163018 0.0490053 -0.0437541 0.0328788
58 2 52.5741997 43.8445016 48.4822998 6.6120401e-04 -0.0128022 -0.0026006
59 2 51.0721016 55.2377014 42.0138016 0.0383494 -0.0499671 -0.0516592
60 2 55.1472015 52.0330009 45.1753998 -0.0304926 -0.0056754 -0.0064456
61 2 50.4696999 45.2789993 41.7910996 6.2258101e-04 0.0106365 0.0034311
62 2 43.2347984 53.5239983 41.078701 0.0193758 5.9864902e-04 0.0097333
63 2 44.9939004 43.9982986 39.4216995 -0.0494025 0.0025616 -0.0169382
64 2 46.8739014 48.9127008 42.3338013 0.0024246 -0.003908 0.0106741
