ITEM: TIMESTEP
142000
ITEM: NUMBER OF ATOMS
64
ITEM: BOX BOUNDS pp pp pp
0.0 100.0
0.0 100.0
0.0 100.0
ITEM: ATOMS id type x y z fx fy fz
1 1 53.7928009 53.0213013 51.6221009 -0.0255323 0.0287331 0.0508004
2 1 50.3245011 47.3986015 42.4636002 0.0058863 -0.0301028 -0.0017535
3 1 56.9180984 52.740799 49.974701 0.0310152 -0.0300169 -0.0236157
4 1 46.137001 49.2425003 45.6300011 -0.0428457 -0.0660391 -0.113493
5 1 51.7304993 55.1161003 45.2900009 0.0148465 -0.0165344 0.004986
6 1 40.838501 51.3022995 47.7168007 -0.0177661 0.0061153 0.0110895
7 1 55.2573013 54.7808991 47.3055 -0.023281 -0.017582 -0.0088279
8 1 49.5475998 45.6711006 45.9241982 0.106503 -0.0732203 0.0797621
9 1 45.4229012 51.1996994 56.0842018 0.006916 0.0023367 -0.0186336
10 1 52.1787987 43.8003006 48.2897987 0.149717 -0.075259 -0.0611218
11 1 55.1593018 50.6743012 46.6124001 0.0243038 0.0195929 -0.0036115
12 1 48.2282982 54.9981996 43.0605011 0.0110274 -0.0124825 -0.0109475
13 1 41.2428017 47.0840988 48.9374008 -0.0119834 0.0297519 0.0241912
14 1 45.0261002 54.9225006 52.2631989 0.0887443 0.0149625 -0.0581487
15 1 50.9916992 54.1617012 49.3613014 -0.0061092 -0.0111148 -0.021512
16 1 52.4934006 48.6444016 45.2345009 -0.0440938 -0.0446192 -0.207828
17 1 46.4243012 45.6952019 44.3609009 -0.0573881 0.011442 -0.0366294
18 1 48.0042992 51.8552018 50.5929985 -0.0172969 0.0448355 -0.0305547
19 1 45.2957993 48.9062996 49.5294991 -0.0206411 -0.025257 -0.0162455
20 1 58.8911018 50.4785996 45.4813004 -2.3749302e-04 -0.0106849 0.0069573
21 1 45.8681984 53.6570015 45.6985016 0.0048467 -0.0284308 0.0028802
22 1 49.6688996 49.2072983 52.104599 0.0844392 -0.0268258 0.0686071
23 1 39.5400009 50.3885994 41.9113998 0.0073603 4.1303201e-04 0.0049565
24 1 49.4169998 51.7965012 45.9616014 0.0367906 -0.0799607 0.0145322
25 1 44.6969986 52.4058991 49.0213013 -0.0189519 0.0245219 -0.0152263
26 1 45.0777016 43.2789993 48.4771004 -0.0123152 0.0167682 0.0020537
27 1 53.7090988 49.3953018 50.4972992 0.0397951 0.0313519 0.082868
28 1 51.0362015 51.0784988 42.1819 -0.0057219 0.0067597 0.030746
29 1 47.2056007 45.9418984 50.3227997 -0.0106549 -0.0249309 0.0621526
30 1 43.1785011 51.0335007 43.7619019 0.0155066 -0.0125686 0.0145885
31 1 47.2711983 49.1348991 41.3181 -0.0159238 0.0135149 0.0206439
32 1 49.5269013 48.2140999 48.6777001 0.0149433 0.0347953 -0.0676869
33 2 47.3097 51.5017014 43.7658997 -0.0059066 -0.0014416 -0.0103049
34 2 49.907299 44.9684982 49.2919006 -0.150014 0.097511 0.0513342
35 2 53.2776985 48.7201004 42.2692986 -0.0131369 0.0045686 -0.004491
36 2 49.399601 48.5731011 38.5438996 -0.0050082 0.0019096 0.0203336
37 2 56.167099 50.9389 52.905201 -0.0163689 0.009787 -0.0281191
38 2 49.0993996 59.091301 43.716301 -2.6347902e-04 -0.0091786 5.6890702e-04
39 2 47.2720986 50.4784012 47.8512002 0.0704658 0.0790947 0.109917
40 2 48.8300019 54.6418 46.0228004 -0.02447 0.0472897 0.0322071
41 2 47.6330986 51.0970001 53.6068001 0.0026907 0.0257811 0.0133853
42 2 52.5974007 49.0629005 47.9151994 -0.0363525 0.0237915 0.118252
43 2 44.4482003 47.8886986 42.7440987 0.0206412 0.0151164 0.019675
44 2 47.0014 54.5500984 49.4379006 1.4017e-04 -0.0041725 -0.0027552
45 2 49.925499 44.338501 43.3160019 -0.0011583 -0.0050373 -0.0308251
46 2 43.4604988 50.2039986 46.9073982 0.0517225 -0.0104119 -0.0049526
47 2 57.4896012 53.1791 45.7821007 -0.0192293 -1.58294e-04 0.0122544
48 2 47.0228004 45.4014015 47.4248009 -0.0316871 0.0175544 -0.019159
49 2 56.7825012 49.7015991 49.0475998 -0.0126575 0.0069552 0.0090298
50 2 43.913601 46.1762009 50.1486015 0.0363268 -0.0193845 0.0172573
51 2 49.368599 48.4220009 45.2345009 -0.0263337 0.114463 -0.0051417
52 2 52.6376992 52.0363007 45.2584 -0.0155698 -0.0130234 0.0047512
53 2 50.5250016 46.3720017 53.0866013 -0.0057232 8.4807396e-04 -0.011429
54 2 43.5694008 46.7887001 47.0847015 0.0475654 0.009598 -0.0420109
55 2 41.9990998 47.4641991 52.5060997 -0.0010645 0.0071453 -0.0119081
56 2 50.9900018 51.0707016 49.9547006 -0.0094749 -0.0052758 -0.0010422
57 2 51.6278 51.7174988 53.2477989 -0.0293148 -0.020814 -0.0020449
58 2 52.6186981 45.0243988 45.5214997 -0.0077926 0.0254756 -0.0140001
59 2 42.6315995 50.3694 50.1609993 -0.007716 -0.0134348 0.0027237
60 2 42.7458992 53.8967018 53.6544991 -0.0646539 -0.0358758 0.0410094
61 2 46.8307991 48.3830986 52.2284012 -0.0424024 -0.0241761 -0.0190214
62 2 49.2038994 55.0750008 52.7916985 -0.0036225 -0.0165563 -0.0163948
63 2 53.6427002 55.9586984 49.6808014 -0.0070051 -0.0219296 0.0073687
64 2 53.8451996 52.2195015 48.7947998 -0.0045244 0.0137158 -0.0224463
