ITEM: TIMESTEP
128000
ITEM: NUMBER OF ATOMS
54
ITEM: BOX BOUNDS pp pp pp
-0.0832563 10.9912368
-0.0832563 10.9912368
-0.0832563 10.9912368
ITEM: ATOMS id type x y z fx fy fz
1 1 10.9206 10.8832998 0.170388 0.0893622 0.113978 -0.112433
2 1 3.67484 10.9014998 0.070994 0.0584115 0.0807335 -0.0690593
3 1 10.9638996 3.67415 0.13944 -0.020932 -0.0333057 -0.217213
4 1 3.7981601 3.4781699 10.9354 -0.154835 0.0422102 -0.0023915
5 1 -0.0387975 -0.0513449 3.61705 0.012914 0.0044433 0.0849666
6 1 3.6699901 0.180969 3.6023901 0.0123452 -0.0345713 0.0477116
7 1 -0.0305254 3.7351301 3.44977 -0.152274 -0.0231333 0.23732
8 1 3.38676 3.6777799 3.4631701 0.223131 0.0227173 -0.0727372
9 1 -0.0756611 -0.0707398 7.3758998 0.0200559 0.0257081 -0.0679221
10 1 3.8499702 10.9062996 7.4362502 -0.00375 -0.0839996 -0.212517
11 1 10.9712 3.65324 7.3605199 0.0267721 0.0093225 -0.0407732
12 1 3.67064 3.39205 7.0050702 -0.0727831 0.0571115 0.052976
13 1 0.0992549 7.3459301 10.5761996 -0.0097913 0.0539581 0.0969191
14 1 3.81216 7.3038101 0.109477 -0.0319377 -0.0415108 -0.0288738
15 1 10.9582996 7.2447901 3.75598 -0.0343767 0.0586378 -0.0913652
16 1 3.4879401 7.6387 3.7277999 0.0428595 -0.0487836 -0.019099
17 1 10.8101998 7.1349101 7.2100301 0.0236551 0.0675561 -0.0320985
18 1 3.3297601 7.2249098 7.3941898 0.0469305 0.0112464 0.0021672
19 1 7.4741001 10.9158002 0.0253223 -0.0843003 0.0564298 -0.0593223
20 1 7.2558799 3.7260001 -5.07059e-04 0.110036 0.0083691 -0.062918
21 1 7.4723902 0.0165574 3.6617301 -0.093756 -0.135134 -0.0815048
22 1 7.1324802 3.4965999 3.6420901 0.0376668 0.179234 0.0375227
23 1 7.30652 10.8501998 7.1858902 0.0623518 0.0175421 0.096927
24 1 7.1510801 3.3889401 7.32792 0.0736304 0.0854876 0.0766217
25 1 7.3976202 7.2948599 10.8958998 0.0113501 0.0375634 0.148834
26 1 7.1447401 7.4938402 3.71185 0.0854589 -0.0689594 0.0153188
27 1 7.18571 7.1366601 7.5496202 -0.0322566 0.013728 -0.1506
28 2 1.66597 1.99362 1.88966 0.0190206 -0.1157 -0.0806819
29 2 1.5665601 1.90981 5.5900603 -0.0048406 -0.0480454 -0.06329
30 2 2.2235899 1.45607 8.86094 -0.163583 0.203058 0.153415
31 2 1.36497 5.76055 1.52297 0.10668 -0.0099756 0.0870323
32 2 1.92546 9.4170103 1.77512 -0.0520504 -0.074808 0.0508712
33 2 1.9934602 5.37953 5.1458998 -0.0969872 0.0935406 0.129128
34 2 1.60921 9.0989103 5.5634399 -3.4442799e-04 0.0303608 0.0150328
35 2 1.94277 5.2076302 9.1774101 -0.0361412 -0.0059232 0.0051057
36 2 1.69345 9.5544396 9.2436895 0.0352823 -0.0946242 -0.0013263
37 2 5.5956502 2.0712299 1.71664 -0.0683475 -0.132797 0.0094298
38 2 8.9946804 1.87086 1.89896 0.0494783 0.003231 -0.0363239
39 2 5.52986 1.7083401 5.4453602 -0.030411 -0.0399962 -0.0138266
40 2 8.6850996 1.85986 5.4320698 0.193694 -0.0037929 0.0586643
41 2 5.5727301 1.7717201 9.3369503 0.0179834 -0.060326 -0.0296008
42 2 9.5803004 1.91583 9.1753702 -0.0842897 -0.0548838 0.0540501
43 2 5.7056299 5.56598 2.01405 -0.0614748 -0.006576 -0.0447811
44 2 9.0852604 5.49506 1.8846 -0.0170734 0.0147189 -0.0051335
45 2 5.6784702 9.20928 1.78662 -0.0350011 0.013533 -0.0019528
46 2 9.29389 8.98942 1.6297 -0.0313568 -0.0451793 0.0587834
47 2 5.5109201 5.4130101 5.58002 -0.0135341 0.0151598 -0.0314623
48 2 9.0501299 5.34864 5.4933801 -0.0214198 -0.0089789 -0.0158392
49 2 5.52386 9.17974 5.5373998 -0.0432889 -0.0105736 -0.009118
50 2 9.0649099 8.9781104 5.5848298 0.0098084 0.0217293 -0.0214394
51 2 5.1297202 5.1511302 8.8569604 0.0624729 0.0577494 0.0422182
52 2 9.2109203 5.5911899 9.2399798 -0.0172037 -0.0824784 -0.0118457
53 2 5.3578501 9.2173004 9.1068001 0.0739653 -0.0826907 0.0792524
54 2 9.2565603 9.3144302 8.9952298 -0.0369768 -0.0523111 0.0471817
