ITEM: TIMESTEP
186000
ITEM: NUMBER OF ATOMS
54
ITEM: BOX BOUNDS pp pp pp
-0.1109584 11.018939
-0.1109584 11.018939
-0.1109584 11.018939
ITEM: ATOMS id type x y z fx fy fz
1 1 10.9727002 -0.0632407 10.9199 0.0106498 -0.0050191 0.0541366
2 1 3.50278 0.023753 10.9721004 -2.96024e-04 -0.183488 0.0117532
3 1 -0.0185109 3.3915701 -0.0587314 -0.0125461 0.130683 -0.0528001
4 1 4.0397701 3.28036 0.0823755 -0.19172 0.229478 -0.0406182
5 1 10.9490004 10.8739004 3.26105 0.0545195 0.0319871 0.118166
6 1 3.6958301 0.0939951 3.3845899 -0.125725 -0.119827 0.160056
7 1 10.7735996 3.44781 3.5065 0.114612 0.0125192 0.0150735
8 1 3.4680701 3.5426901 3.7632501 -0.0011432 0.0630353 -0.0212191
9 1 10.9552002 0.0124763 7.4900699 0.0779997 -0.0435667 -0.103055
10 1 3.5644801 4.22049e-04 7.5128799 0.0184705 -0.0319505 -0.124281
11 1 10.9634 3.6164999 7.3322902 0.0531949 -0.0334109 -0.0063025
12 1 3.4656999 3.7056799 7.38026 0.0824834 -0.0573223 -0.0258971
13 1 -0.109817 7.2933898 0.11801 -0.0053101 -0.0417287 -0.0051592
14 1 3.4377201 7.1799798 -0.0867598 0.0841912 -0.0360884 -0.0729181
15 1 10.9646998 7.1181998 3.97334 0.0127501 0.0735611 -0.202405
16 1 3.56969 7.1623502 3.5314801 0.0175858 0.0414917 0.111469
17 1 -0.0838454 7.2315302 7.2999902 -0.0873067 0.123834 0.212073
18 1 3.37513 7.41289 7.2696099 0.0827271 0.0412201 0.0035413
19 1 7.3199701 10.9946004 10.9021998 0.0216597 0.0736218 0.0661246
20 1 7.3743 3.5694001 -0.0184351 0.113816 0.0519267 -0.0679507
21 1 7.1565199 10.8733998 3.6294601 0.0951673 -0.0317669 -0.0146221
22 1 7.2796798 3.4864199 3.55914 -0.10358 -0.0718881 -0.0370142
23 1 7.5005102 -0.101935 7.2642002 -0.161131 -0.079327 -0.0770452
24 1 7.5423198 3.7009101 7.2451 -0.194146 0.0092012 0.0156966
25 1 7.3674898 7.3381801 -0.0987873 -0.0605823 -0.0381709 -0.0187432
26 1 7.4184599 6.9087802 3.5675199 -0.192016 0.250091 0.0553349
27 1 7.4686699 7.3076501 7.1283498 -0.0477467 0.0306822 0.0422899
28 2 1.7074601 1.8177001 1.74877 0.0196847 -0.0232976 0.0164375
29 2 1.61392 1.73473 5.4314699 -0.0045535 -0.0066456 0.0067963
30 2 1.83752 1.83906 9.1915197 -0.0257557 0.0089366 0.0028455
31 2 1.5756001 5.5170298 1.95804 0.0027201 -0.0400529 -0.0132296
32 2 2.3367701 9.0980597 1.81144 -0.138098 0.0613674 -0.0179249
33 2 1.52491 5.5029202 5.7108898 0.101959 -0.0884029 -0.0698579
34 2 1.69388 9.4667101 5.44659 0.0036138 -0.0175368 -0.0033389
35 2 1.78627 5.38303 9.0358 -0.0473641 0.034337 0.0719692
36 2 1.58195 9.0661297 9.5507097 0.0317989 0.0138737 -0.0723223
37 2 5.52208 1.5051101 1.79027 0.111178 0.0517127 -0.0378687
38 2 9.0278397 1.76063 1.6773401 0.0144105 -0.0491513 0.0053104
39 2 5.6270199 1.87152 5.4179502 -0.0370739 -0.0273641 0.0374885
40 2 9.0977402 1.79099 5.36306 0.0111449 -0.0426344 0.0148162
41 2 5.51789 1.7273901 9.0756903 0.0184989 0.0111801 -0.008322
42 2 8.8297196 1.73356 8.9067698 0.120216 0.0497601 0.141219
43 2 5.2587199 5.58355 1.74184 0.0579829 -0.049613 -0.0169377
44 2 9.1220303 5.6195102 1.83944 0.110237 -0.117958 -0.116892
45 2 5.4347601 9.3402596 1.4244601 0.0137858 -0.0428446 0.0337376
46 2 9.2501497 9.1854496 1.61315 -0.0658524 -0.0211136 0.0193481
47 2 5.2458 5.55121 5.5112701 0.0274404 -0.0206196 -2.6280201e-04
48 2 9.0363398 5.1643801 5.2037401 0.0684631 0.0301866 0.0839533
49 2 5.3338299 9.0800896 5.43464 0.0027201 0.0069152 0.0018731
50 2 9.3162203 9.3488798 5.4302101 -0.0056779 -0.0210536 6.6021104e-04
51 2 5.3043599 5.6525898 8.8466702 0.0361851 -0.0068794 0.042307
52 2 9.3277102 5.5317998 9.1297903 -0.0232919 -0.0102181 0.032134
53 2 5.6457501 9.3675404 9.1911602 -0.053486 -0.0575799 -0.047174
54 2 9.2593899 9.1119404 9.5322504 -0.0074635 -0.0150818 -0.10245
