ITEM: TIMESTEP
134000
ITEM: NUMBER OF ATOMS
54
ITEM: BOX BOUNDS pp pp pp
-0.1253201 11.0333004
-0.1253201 11.0333004
-0.1253201 11.0333004
ITEM: ATOMS id type x y z fx fy fz
1 1 0.159115 11.0293999 0.0756065 -0.167168 -0.0678912 0.0169116
2 1 3.5624001 -0.0012218 0.153679 0.151515 -0.119138 -0.0382608
3 1 10.9979 3.5409501 10.8747998 -0.0066985 0.0307091 0.0741288
4 1 3.5267899 3.3979199 10.9371004 -0.0281379 0.116749 -0.0960727
5 1 10.9868002 11.0318003 3.95084 -0.0101269 -0.0107824 -0.0691435
6 1 3.4554701 10.8451004 3.79387 0.0297509 0.197232 -0.113714
7 1 0.0230911 3.6764801 3.5391701 -0.0394913 -0.0116758 -0.0160882
8 1 3.6758499 3.5504899 3.1931901 0.0228219 0.0023096 0.117056
9 1 10.9764996 0.0574618 7.65591 -0.0863401 -0.137252 -0.0869657
10 1 3.49524 10.9105998 7.5604501 0.118546 0.164123 -0.0441207
11 1 -0.0021388 3.57285 7.2163501 -0.0615119 0.0698385 0.0252029
12 1 3.61641 3.3838899 7.1059098 -0.0040421 0.0605136 -0.001431
13 1 10.8900996 7.4135299 -0.0775802 -0.0051395 -0.0309372 -0.0534615
14 1 3.4798901 7.2307 10.8528004 0.0259686 -0.0184904 0.0757537
15 1 -0.0445867 7.4694901 3.4933 0.0279181 -0.0224332 0.0561763
16 1 3.7760601 7.4116802 3.4935601 0.0016997 -0.114587 0.0338542
17 1 11.0096998 7.2723899 7.2574101 -0.0314471 0.0078036 1.3225401e-04
18 1 3.4061999 7.3420601 7.3990302 0.0762467 -0.0435778 -0.117124
19 1 7.48943 10.9663 -0.10704 -0.0366155 0.0476955 -0.0323284
20 1 7.1097298 3.71683 -0.121759 0.0451259 -0.0322476 0.0333164
21 1 7.3729601 10.9132996 3.5889001 -0.0203897 -0.0206503 -0.0355182
22 1 7.4419899 3.7951801 3.60899 -0.0181561 -0.286904 -0.0450386
23 1 7.03545 10.8374005 7.0889602 0.0701678 0.121782 0.11206
24 1 7.4384899 3.6131699 7.5075403 0.0016036 -0.0465005 -0.0611952
25 1 7.0626202 7.41364 10.9297 0.0896954 -0.127645 0.0383601
26 1 7.5879798 7.0967698 3.52998 -0.14688 0.371983 -0.0932905
27 1 7.1113401 7.3220301 7.0402198 -0.0426811 0.0045816 0.0819029
28 2 1.6777901 1.6576801 1.7306401 0.0124137 0.0654028 0.0736913
29 2 1.46383 1.64853 5.5841098 0.08183 0.0039728 -0.0137171
30 2 1.53924 1.61285 9.3011503 0.106361 0.0704953 0.0024304
31 2 1.71084 5.61728 1.77115 0.0089237 -0.0251943 -0.0247002
32 2 1.94966 8.8885002 1.62419 -0.0323574 0.0645426 0.0103711
33 2 1.82814 5.3336501 5.2880302 0.0200931 0.0301361 0.0164851
34 2 1.91281 9.4443798 5.69521 -0.134537 -0.120378 0.0083396
35 2 1.6524101 5.5630203 9.0648603 -0.015237 -0.0461103 0.0227981
36 2 1.9362 9.3141899 9.1952601 -0.124492 -0.0847926 0.108848
37 2 5.8184099 1.55951 1.82433 -0.0418659 0.0363941 -0.0183349
38 2 9.3182602 1.71872 2.03811 -0.008171 6.2726398e-04 -0.043218
39 2 5.4446702 1.8795 5.2544499 0.0199533 -0.0295205 -0.0078588
40 2 8.93958 1.66336 5.29002 0.0171913 0.0337668 0.0613148
41 2 5.29983 1.7745301 9.0377502 0.0396631 -0.0247363 0.0214034
42 2 9.1197395 1.64156 9.4066601 -0.0053494 0.0340135 -0.0210655
43 2 5.6309099 5.57721 1.83683 -0.0402143 -0.0106892 -0.02857
44 2 9.0576201 5.48035 1.7161601 0.0844939 -0.0420424 -0.0875169
45 2 5.5205498 9.1301098 1.6170501 -0.017447 0.0295976 0.0343234
46 2 9.2227402 9.3867703 1.6715 0.0238771 -0.0477342 0.0366225
47 2 5.8436198 5.3220401 5.4762702 -0.176586 -0.0332443 -0.0220513
48 2 8.8505298 5.5777703 5.4523402 0.227113 -0.094766 0.129596
49 2 5.38977 9.3120899 5.24505 0.0186501 -0.0890042 0.033549
50 2 9.2614298 9.2212601 5.7604699 -0.0057897 0.0026493 -0.0526714
51 2 5.3374 5.34025 8.9623604 -0.0077498 0.0168582 0.015024
52 2 9.2530699 5.38166 9.2783604 -0.0200401 0.0259013 -0.0195965
53 2 5.54036 9.2718897 9.3713999 -0.077885 0.0411952 -0.0621592
54 2 8.7705202 8.7113896 8.88591 0.0909228 0.0880508 0.0655606
