ITEM: TIMESTEP
148000
ITEM: NUMBER OF ATOMS
54
ITEM: BOX BOUNDS pp pp pp
-0.0672561 10.975236
-0.0672561 10.975236
-0.0672561 10.975236
ITEM: ATOMS id type x y z fx fy fz
1 1 0.198898 0.0092929 0.173729 -0.0669891 0.0124493 -0.0145725
2 1 3.63024 0.204461 10.7324 -0.0135107 -0.126017 0.0551198
3 1 0.184822 3.61022 10.7654 -0.183179 0.0515781 0.121953
4 1 3.68185 3.70468 0.179034 0.0748446 0.0589963 -0.200768
5 1 10.9097996 10.9262 3.7932401 -0.127889 -0.0359651 -0.0362352
6 1 3.25577 10.9097004 3.4495201 0.248232 0.226524 0.0583799
7 1 10.7679997 3.7409799 3.5332301 0.210161 -0.17175 0.0050024
8 1 3.6173899 3.6066401 3.6103301 0.0024198 0.0207729 0.0839333
9 1 10.9518004 10.9153996 7.4562402 0.0354963 0.109551 -0.0352981
10 1 3.6538301 0.0374316 7.0506601 -0.110776 -0.0574822 0.118554
11 1 0.0463568 3.6494601 7.0754299 -0.047346 -0.0126603 0.0231546
12 1 3.75434 3.64096 7.07515 -0.027547 -0.0357438 0.11066
13 1 0.0845003 7.4897299 -0.0369567 -0.0153675 -0.0841759 0.0347819
14 1 3.65093 7.2858 0.0919939 0.0244653 0.0337116 -0.124784
15 1 0.0778543 7.1270099 3.63479 -0.008354 0.12442 -0.0036647
16 1 3.9468502 7.3711901 3.5239699 -0.104843 -0.0678822 0.115073
17 1 10.6857004 7.4270902 7.51757 0.0606634 -0.0963957 -0.0664917
18 1 3.4733 7.2796798 7.28021 0.0226808 0.0486508 0.0536917
19 1 7.21699 10.9657002 0.0334497 0.0026728 0.0273252 -0.0836905
20 1 7.1536698 3.6579101 10.9596996 0.0835204 0.012461 0.0483942
21 1 7.07024 0.0644244 3.47787 0.0576874 -0.101678 0.0814593
22 1 7.43295 3.5172601 3.7232299 -0.166904 0.0502878 -0.0589739
23 1 7.2565599 10.8028002 7.4520798 0.0051293 0.0642246 -0.0184348
24 1 7.4047399 3.5167501 7.3613901 -0.0051431 -0.0182078 -0.0143557
25 1 7.2880001 7.3891401 10.8802004 1.94696e-04 -0.0647227 0.0216891
26 1 7.3861299 7.3868299 3.7674999 0.0485452 0.011032 -0.0901434
27 1 7.0874701 7.2596102 7.2982102 0.0046604 -0.0383493 0.0230563
28 2 1.93734 2.0870199 1.7097501 -0.103346 -0.0943857 0.0487516
29 2 1.6287 1.69416 5.3508501 0.0281903 0.0323352 0.0140016
30 2 1.83215 2.0072999 9.1251297 0.0550798 -0.101632 -0.0837708
31 2 2.0307 5.4796701 1.7985801 -0.0776781 0.0232256 0.0401506
32 2 1.94856 9.1055803 1.89792 -0.133003 -0.134967 -0.137396
33 2 1.81195 5.6619101 5.5780201 -0.0194423 -0.0595155 -0.0493696
34 2 1.96198 9.0389004 5.19378 -0.0571844 -0.0335109 0.0856917
35 2 1.83409 5.0942702 8.9801302 0.0656285 0.134728 -0.0198816
36 2 1.8170201 9.2247601 9.1099997 0.0186782 -0.0049071 0.0075217
37 2 5.2051201 1.72233 1.84527 0.0405055 0.0072375 -0.0126994
38 2 9.0884705 1.82997 1.3761701 0.0241798 0.0154872 0.0951871
39 2 5.3508802 1.53853 5.3545199 0.0482744 0.094158 -0.0330826
40 2 9.1067305 1.71897 5.3674202 0.0080644 -0.0183364 0.0488419
41 2 5.53998 1.75053 9.2822704 0.0264488 0.048131 -0.0831343
42 2 9.13906 1.7853101 9.3390503 0.0069942 -0.0102934 -0.0536653
43 2 5.6481099 5.38374 2.05849 0.0087231 0.0029411 -0.0408969
44 2 9.4340296 5.2902799 1.57338 -0.0767616 0.077365 -0.0597194
45 2 5.2492199 9.3324099 1.7453901 0.0406487 0.0049769 -0.0318716
46 2 9.0344 9.1136398 1.46336 0.041014 0.0133372 0.110183
47 2 5.6170602 5.28792 5.51158 -0.0022244 0.0359082 -0.0390177
48 2 9.0091801 5.4851399 5.3645301 0.0385685 7.7262702e-04 0.0576424
49 2 5.3220101 9.2264795 5.5064802 0.0442242 -0.0284258 -0.0263017
50 2 9.0048504 9.0914602 5.6763702 0.0186667 0.0256415 -0.0352526
51 2 5.4031301 5.3735199 9.1342602 -0.0120176 0.0147946 -0.0039595
52 2 9.0619497 5.35532 9.1482897 0.0152603 0.0132315 0.0074444
53 2 5.2701998 9.0455999 9.1717596 0.0066958 0.0203819 -0.008221
54 2 9.3569803 9.4043999 9.4027596 -0.0577137 -0.0196346 -0.0046657
