ITEM: TIMESTEP
188000
ITEM: NUMBER OF ATOMS
54
ITEM: BOX BOUNDS pp pp pp
-0.0717163 10.9796964
-0.0717163 10.9796964
-0.0717163 10.9796964
ITEM: ATOMS id type x y z fx fy fz
1 1 -0.0625625 0.167823 0.0405986 -0.0475935 -0.231468 -0.171104
2 1 3.4149699 0.210322 10.6625004 0.183517 -0.168438 0.0845535
3 1 10.844 3.4257901 -0.0274214 0.0707094 0.251204 -0.129586
4 1 3.7818601 3.7448399 0.0028596 -0.207243 0.0489733 0.0295837
5 1 10.8301001 0.388487 3.35272 0.0951585 -0.123295 0.122082
6 1 3.6419699 10.9273006 3.5596299 -1.4634601e-04 -0.0521375 -0.0506699
7 1 0.205363 3.89691 3.34165 -0.317682 -0.206115 0.174971
8 1 3.43816 3.3706999 3.8153801 0.295722 0.180466 -0.0382338
9 1 0.0276884 -0.0635967 7.2692499 -0.0509202 0.0023408 0.01255
10 1 3.5541601 -0.0407411 6.9526602 0.0664028 -0.0011181 0.135847
11 1 10.9533998 3.7416601 7.1157799 0.0516833 -0.160619 0.0429539
12 1 3.89356 3.60026 7.5419503 -0.19391 -0.0766498 -0.141347
13 1 10.6245003 7.5195499 -0.0698012 0.152075 0.0269692 0.0377388
14 1 3.1633501 7.3892398 10.9181004 0.098311 -0.0029566 -0.0057934
15 1 -0.0264483 7.3073201 3.5948801 0.0338766 0.101649 -0.0119898
16 1 3.7648301 7.38064 3.44207 -0.280449 -0.128729 0.27529
17 1 0.0819213 7.1268601 7.4313002 -0.0887536 0.0967494 -0.0512861
18 1 3.5381501 7.1077099 7.2365599 0.0870657 0.0419455 0.0082905
19 1 7.2968102 -0.0642297 -0.001053 -0.0238406 0.0142909 -0.0248538
20 1 7.11094 3.70857 -0.0280997 0.169221 0.0406416 0.0418329
21 1 7.408 -0.0304922 3.5785401 -0.115355 -0.048756 0.0434898
22 1 7.2792702 3.56406 3.7660899 0.0301015 -0.0089436 -0.0721178
23 1 7.19205 -0.0287162 7.3728099 0.0287247 -0.0316511 -0.0110398
24 1 7.3320799 3.6215301 7.2891698 0.0607452 0.0134649 -0.0379039
25 1 7.2533999 7.38939 10.9559002 -0.118695 -0.0412641 0.0057804
26 1 7.37852 7.0172 3.40187 0.0274709 0.0847139 0.124652
27 1 7.4337502 7.1465902 7.2658501 -0.0025532 0.04945 -0.0117079
28 2 2.0661299 1.62247 1.8727602 -0.0921479 0.0637201 -0.0721365
29 2 1.7281801 1.7121901 5.2312002 -0.0981945 -0.0627111 0.107685
30 2 1.7947201 1.6556601 8.9654904 -0.0929484 0.13194 -0.0857752
31 2 1.86333 5.4629598 1.88235 0.130853 0.122906 -0.140409
32 2 1.66889 9.2577 1.65167 -0.0079393 0.0114745 0.0347144
33 2 1.6659301 5.4868202 5.3184099 0.0638277 0.0191172 0.0395243
34 2 1.88181 9.0029602 5.5989299 -0.0302774 -0.0101964 -0.0593102
35 2 1.6246701 5.3561602 9.2906399 0.0115383 -0.0310475 0.0015028
36 2 1.62024 9.0993605 8.99885 0.0256345 0.0386563 0.0273072
37 2 5.1628599 1.76773 1.66606 0.0916992 -0.0234014 0.0331289
38 2 8.92515 2.01652 1.66878 -0.0191215 -0.0323878 0.0351853
39 2 5.5788498 1.6910301 5.2761102 -0.0335447 -0.0099589 0.0511527
40 2 9.2098198 1.42474 5.4844198 -0.0506783 0.0922325 0.0564678
41 2 5.6950302 1.96014 9.1427202 -0.0413183 -0.0856699 0.0318757
42 2 8.9600602 2.0559599 9.1043797 0.0496538 -0.0668429 0.0227769
43 2 5.2957101 5.6243201 1.93301 0.0531425 -0.138584 -0.119664
44 2 9.3472796 5.45748 1.69083 -0.0534738 -0.0025766 -0.0066666
45 2 5.3782101 9.04599 2.0984199 0.200448 0.161765 -0.193783
46 2 8.9801904 9.09091 2.0511899 0.0535793 0.0129705 -0.0615581
47 2 5.5553699 5.5260101 5.4876399 -0.0239228 -0.0220906 -0.0167744
48 2 9.2688198 5.4393602 5.43818 -0.0325392 0.0224976 -0.039092
49 2 5.6620403 8.9565402 5.67242 -0.0287365 0.0175551 -0.0464514
50 2 9.6403504 9.0539398 5.51508 -0.075329 0.0144521 -0.0045574
51 2 5.5198002 5.3828702 9.0136099 0.0455742 0.0977832 0.0695912
52 2 9.1649504 5.6213498 9.3013897 -0.0231286 -0.0732839 -0.0342642
53 2 5.4106598 8.8075104 9.1834402 -0.0340565 0.0531019 -0.0370567
54 2 9.0830498 9.0995197 8.87918 0.0077638 0.0278606 0.0246044
