ITEM: TIMESTEP
166000
ITEM: NUMBER OF ATOMS
54
ITEM: BOX BOUNDS pp pp pp
-0.0702565 10.9782372
-0.0702565 10.9782372
-0.0702565 10.9782372
ITEM: ATOMS id type x y z fx fy fz
1 1 0.0240824 0.0230777 10.8035002 -0.315181 0.18121 0.212657
2 1 3.4584401 10.9766998 0.0118408 0.140527 -0.0511792 -0.0300699
3 1 10.9154998 3.7788601 10.896 0.0020997 -0.0632615 0.0236635
4 1 3.4714999 3.5332799 0.035917 0.0619233 -0.026472 -0.0818084
5 1 10.9103004 -0.0128629 3.64923 -0.0567899 -0.111663 -0.0664262
6 1 3.4376099 10.7966004 3.72416 0.0828155 0.132858 0.0036307
7 1 10.8296004 3.36817 3.78318 0.313622 0.353877 -0.5083151
8 1 3.5402999 3.6970301 3.5488701 0.119851 -0.109407 0.0733721
9 1 0.0273994 -0.0178461 7.18574 -0.0167138 0.06552 0.0726525
10 1 3.8954502 10.8913002 7.4619398 -0.0709727 -0.11566 0.0042006
11 1 10.9390002 3.70643 6.9896498 0.0077825 -0.0222922 0.303143
12 1 3.7033701 3.2807901 7.3126898 -0.0791165 0.151232 -0.024286
13 1 10.9680004 7.3185501 10.8676004 0.0215764 0.052474 0.0482246
14 1 3.6857901 7.0560899 0.0284529 -0.122941 0.0907864 0.0427233
15 1 10.7848997 7.2852202 3.5628801 0.14223 0.0201906 -0.0509882
16 1 3.3578301 7.3963499 3.5557599 0.0325654 -0.0957874 0.038805
17 1 -0.0565188 7.3288798 7.2512798 0.0412428 -0.0267723 0.0555247
18 1 3.5157199 7.21697 7.4088402 0.0464552 0.0018129 -0.0169106
19 1 7.3452301 0.0515726 10.7391005 -0.0589686 -0.0080262 0.107989
20 1 7.3255501 3.5968399 10.7131005 0.0121715 0.0041726 0.242643
21 1 7.23312 10.5978003 3.5827799 -0.0080832 0.237271 0.0162502
22 1 7.4033699 3.6582201 3.74841 -0.171463 0.0412789 -0.0956552
23 1 7.5040398 0.0866219 7.283 -0.0186811 -0.0385213 -0.0950115
24 1 7.4068399 3.6624701 7.41889 -0.0362893 0.0473445 -0.19002
25 1 7.2412901 7.3706598 10.7420998 0.238654 -0.0712359 0.249855
26 1 7.36553 7.3017902 3.79196 -0.156624 -0.129641 -0.200461
27 1 7.4348202 7.37323 7.1764102 -0.108703 0.0225086 0.149031
28 2 1.75888 1.6213 1.64393 -0.042766 0.0610085 0.0764252
29 2 1.75163 1.7319601 5.2576199 0.0362912 0.001979 0.0533812
30 2 1.68702 1.85704 9.18711 0.0181728 0.0102444 -0.0385756
31 2 1.76332 5.1890202 1.91598 -0.0873302 0.0809195 -0.0482071
32 2 1.56383 9.41257 1.88481 -0.0019959 -0.0830197 -0.0474945
33 2 1.95476 5.1663299 5.5180202 -0.0098491 0.0756156 -0.0023355
34 2 1.52713 9.2371597 5.53086 0.0786421 -0.0619214 -0.045408
35 2 1.69246 5.28756 8.9627706 0.015724 0.0103491 0.016239
36 2 1.53766 9.4158001 9.3846102 0.201586 -0.234946 -0.220249
37 2 5.44768 1.3862 1.8177001 0.0016626 0.0551665 0.0093405
38 2 9.1553803 1.7024 1.61534 -0.0057491 0.0176736 0.0098215
39 2 5.3870902 1.54562 5.5655599 0.0448319 0.0223402 -0.0698844
40 2 9.1151695 1.88587 5.1104598 -0.213715 -0.295317 0.29588
41 2 5.4886298 1.87097 9.0837898 0.0199391 -0.0442462 0.0495829
42 2 9.1962004 1.9221802 9.0388899 0.0537159 -0.0276733 0.0055134
43 2 5.6596899 5.1711302 1.54213 -0.0151741 0.0297656 0.0731868
44 2 9.1735497 5.6054902 1.6891001 -0.0362775 -0.0304635 -0.0064501
45 2 5.4832902 9.2252598 1.4953701 -0.0093869 -0.033795 0.0553005
46 2 9.0120096 9.3696299 1.5778001 0.0466837 -0.0506206 -0.0123092
47 2 5.4826699 5.3901901 5.8070598 -0.0106404 0.0036461 -0.0383003
48 2 9.12461 5.7483301 5.4105201 0.0460431 -0.148212 0.0514335
49 2 5.3712602 8.9758596 5.32938 -0.0180603 0.0029554 0.0473473
50 2 9.3047104 8.9794502 5.553 -0.0373736 0.108205 -0.0420821
51 2 5.4929099 5.5406399 9.4783697 -0.041571 -0.101732 -0.17688
52 2 9.1061001 5.6255899 9.1973 0.0147173 -0.0254856 -0.0488091
53 2 5.4295502 8.92165 9.4698 -0.153973 0.165666 -0.18831
54 2 9.0274897 9.2903299 9.1799402 0.0628635 -0.0407187 -0.0425702
