ITEM: TIMESTEP
178000
ITEM: NUMBER OF ATOMS
54
ITEM: BOX BOUNDS pp pp pp
-0.0899205 10.997902
-0.0899205 10.997902
-0.0899205 10.997902
ITEM: ATOMS id type x y z fx fy fz
1 1 10.9756002 10.9351998 10.8872004 0.0174467 0.0497411 2.94031e-04
2 1 3.4770501 -0.0045249 10.8170004 0.164887 -0.169055 0.179004
3 1 -0.0446648 3.6472299 -0.0863319 -0.139441 -0.0750246 -0.0517568
4 1 3.5406301 3.49031 0.016365 0.112293 0.0993646 -0.0934861
5 1 10.8445998 -0.0178615 3.43836 0.082207 0.0162004 0.0200409
6 1 3.5701499 10.8394004 3.61196 -0.0113019 0.0500408 -0.0058805
7 1 0.0896067 3.51823 3.44312 -0.225177 -4.6261301e-04 0.0928907
8 1 3.46852 3.3299799 3.51772 0.147587 0.0360351 0.0887973
9 1 -0.0782987 10.9752998 7.05059 0.0287677 0.0438352 0.0478341
10 1 3.5920401 -0.0176227 7.3341899 0.0476773 -0.302605 -0.116394
11 1 10.9894 3.4284501 7.0308299 -0.046611 0.117832 0.153699
12 1 3.72101 3.20784 7.5243802 -0.0453255 0.290326 -0.0397062
13 1 10.7901001 7.33107 0.0460733 0.0744374 -0.0202918 -0.0050189
14 1 3.6270399 7.4461999 0.121516 -0.0603634 -0.0817092 -0.113087
15 1 10.8662996 7.57371 3.7651401 -0.0083581 -0.118582 -0.0747937
16 1 3.76597 7.2750101 3.5610299 -0.120707 -0.0681619 0.118665
17 1 10.9295998 7.5580902 7.2957802 0.046518 -0.151553 0.100043
18 1 3.7151201 6.9692898 7.44518 -0.365294 0.335016 -0.150013
19 1 7.1863098 0.287445 0.131043 0.105134 -0.308372 -0.0985653
20 1 7.1957102 3.7057801 10.9468002 0.0171286 0.0903167 0.0354961
21 1 7.34658 10.9041004 3.8380699 -0.117186 0.0443947 -0.0874229
22 1 7.2790198 3.8464502 3.86989 0.030414 -0.0472408 -0.105907
23 1 7.48243 0.138304 7.2842302 -0.0943042 -0.156416 0.144586
24 1 7.2999902 3.55987 7.29525 -0.0077153 0.113517 0.0680085
25 1 7.2102599 7.4022002 10.9546004 0.0032109 -0.0152121 -0.0034698
26 1 7.2697702 7.4067602 3.4578901 0.0402406 -0.0293588 0.0493692
27 1 7.3059602 7.37042 7.2199202 -0.0559909 -0.0664256 0.0654707
28 2 1.7221201 1.74193 1.39164 -0.044517 -0.0643341 0.101965
29 2 1.66116 1.8954 5.5098901 0.102577 -0.107364 -0.0750321
30 2 1.8975 1.53437 9.1778297 -0.171789 0.124565 -0.0817279
31 2 1.74209 5.0336499 1.76956 0.0696311 0.180076 -0.0365068
32 2 1.75747 9.0775404 1.85358 -0.0251886 0.0182978 -0.0106361
33 2 1.76177 5.47749 5.4383703 -0.0011635 -0.0021662 -0.0053071
34 2 1.71708 9.0269299 5.3643198 0.0599982 0.0407651 0.0342636
35 2 1.43267 5.3429599 9.2761402 0.0747275 0.0657709 -0.0751352
36 2 1.86495 9.0960703 9.09305 -0.0142232 -0.0083986 0.0010072
37 2 5.7008 1.76937 1.90626 -0.116416 0.0970158 0.118758
38 2 9.2444496 1.68888 1.53371 0.0299787 0.0791088 0.054494
39 2 5.49962 1.97373 5.4786201 -0.0112852 -0.0637384 -0.0273071
40 2 8.90415 1.7064801 5.37291 0.114789 0.086841 -0.0295048
41 2 5.67698 1.5574401 9.2171097 -0.0853952 0.070702 -0.0660718
42 2 9.1342602 2.0460701 9.1237497 0.0250162 -0.0505578 0.0215036
43 2 5.4470401 5.3403001 2.0510299 -0.0090621 -0.0076929 -0.0647154
44 2 9.1521397 5.5251498 1.8252501 -0.010662 -0.0244785 0.0084753
45 2 5.3594499 9.1382504 1.82462 0.0455942 0.0565082 -0.0200456
46 2 8.9037104 9.4301796 1.78121 0.0288719 -0.0504536 -0.0352545
47 2 5.2930398 5.4730001 5.6865402 0.0769164 -0.0791687 -0.113359
48 2 9.2576199 5.4004898 5.67874 -0.0159831 0.0413543 -0.0412871
49 2 5.3810101 9.0859604 5.4067302 0.0067198 0.0060321 0.0348805
50 2 8.9596596 9.0859499 5.6978698 0.0479333 0.0693855 -0.0943713
51 2 5.2624002 5.4250202 8.8967 0.259717 -0.222978 0.27676
52 2 9.0887899 5.32019 9.0592403 0.0139831 0.0393895 0.0095538
53 2 5.4010801 9.0012903 9.1543799 -0.007078 0.042184 -0.0173182
54 2 9.1609097 9.2259102 9.4558201 -0.0638643 -0.0128151 -0.0867778
