ITEM: TIMESTEP
106000
ITEM: NUMBER OF ATOMS
54
ITEM: BOX BOUNDS pp pp pp
-0.0989422 11.0069227
-0.0989422 11.0069227
-0.0989422 11.0069227
ITEM: ATOMS id type x y z fx fy fz
1 1 10.9094 -0.0953472 -0.0498214 0.103758 -0.0505101 0.0243267
2 1 3.7346301 11.0067997 10.8829002 -0.0444061 -0.0245579 0.0247227
3 1 10.8792 3.58126 10.9481002 0.272376 0.20525 0.125434
4 1 3.64286 3.5181601 0.0086218 -0.031058 0.0608414 -0.0140253
5 1 10.9982996 -0.0739072 3.47642 -0.0293684 -0.0230009 0.088605
6 1 3.6647601 10.8693 3.4364 -0.117078 0.108006 -0.0728086
7 1 -0.0578895 3.62268 3.40445 0.0656072 0.0078808 0.0944369
8 1 3.7749601 3.4179499 3.5827501 -0.0129012 0.120994 -0.0649091
9 1 10.9160996 10.9955998 7.5790901 0.0462203 -0.0237809 -0.118718
10 1 3.5129001 0.146095 7.2439599 -0.0081123 -0.100402 0.0034267
11 1 -0.0833352 3.42323 7.3825898 0.0100896 0.101594 -0.115764
12 1 3.6603999 3.5866699 7.4036799 0.0273714 0.140636 -0.0085014
13 1 0.0645647 7.25733 0.153811 -0.121688 0.0371242 -0.229095
14 1 3.5260601 7.3301902 10.8368998 0.0874863 0.0081773 0.106418
15 1 10.9265004 7.1313 3.4210401 -0.0544113 0.0382461 0.227751
16 1 3.32586 7.36096 3.5877199 0.105369 -0.0774317 0.0629097
17 1 -0.0538791 7.10672 7.2678299 0.0074985 0.028888 -0.0212634
18 1 3.61021 7.5747199 7.4570699 0.044351 -0.0587624 -0.141509
19 1 7.4572802 -0.0654853 10.7942 -0.0401029 -0.0291555 0.0729835
20 1 7.4547501 3.5571499 0.0072223 -0.0817812 -0.0230869 -0.107917
21 1 7.1174502 10.7039004 3.6513 0.0787292 0.0712473 -0.061913
22 1 7.5630298 3.3385501 3.7709601 -0.147652 0.0878925 -0.0909678
23 1 7.5122099 0.131254 7.2192001 -0.174079 0.0025984 0.0535057
24 1 7.4204302 3.8719202 7.3312502 -0.0087938 -0.106519 0.0335783
25 1 7.2813802 6.9684702 10.9116002 0.0180359 0.162542 0.0805054
26 1 7.0821199 7.1406202 3.5369699 0.040056 -0.0165966 0.0627391
27 1 7.4000201 7.34271 7.44204 -0.0691593 0.0619103 -0.12006
28 2 1.58031 1.84591 1.66977 0.0491809 -0.0318436 -0.0181302
29 2 1.86696 1.77133 5.06001 -0.0482574 -0.028744 0.0594574
30 2 1.8356201 1.94146 8.97429 -0.0124025 -0.0588583 0.102501
31 2 2.0013399 5.5308299 1.65054 -0.0243117 -0.0586276 0.0223209
32 2 1.68799 9.0981197 1.88939 -0.0059045 0.0441934 -0.0492846
33 2 1.93635 5.21663 5.5111499 -0.0232163 0.0228096 -0.0135171
34 2 1.47427 9.0440903 5.4443698 0.0108903 0.0253064 -0.0050238
35 2 1.6686 5.6146498 9.3517199 0.0016055 -0.0715509 -0.0564777
36 2 1.65756 9.1381302 8.8397398 -0.0134088 0.0223597 0.105344
37 2 5.8435302 1.87126 1.61653 -0.0797422 -0.0822141 0.0764645
38 2 9.2904997 1.8631902 1.72705 -0.0301462 -0.0606076 0.0072027
39 2 5.178 1.85778 5.5088802 0.121626 -0.052686 0.0146869
40 2 9.1382799 1.83898 5.51998 0.118755 -0.0540023 0.0366106
41 2 5.4576302 1.92576 9.4460297 0.0391193 -0.0210504 -0.0823793
42 2 9.4314604 1.94513 9.3930998 -0.19787 -0.17927 -0.172424
43 2 5.5718999 5.3821302 1.73903 -0.0525492 -0.0464234 -0.0104874
44 2 9.0504599 5.2375398 1.70863 0.0379078 0.0706486 0.0488766
45 2 5.39608 8.71626 1.61438 0.0018997 0.0619563 0.0030137
46 2 9.0724096 8.97394 1.91592 -0.0112693 0.0193228 -0.0355655
47 2 5.5602002 5.8393002 6.00914 -0.109443 -0.0939455 -0.156011
48 2 9.0509996 5.67588 5.3729701 0.0139218 -0.0316863 0.0045287
49 2 5.053 9.4185104 5.4149499 0.0728956 -0.0962082 0.0821556
50 2 8.9159404 9.23491 5.5914202 0.0630523 -0.0423652 -0.0374678
51 2 5.4956999 5.4390502 9.10781 -0.0383694 -0.0134326 0.0338398
52 2 9.2117796 5.6401501 9.1039696 0.0387556 -0.0698051 0.030105
53 2 5.6789499 9.2375498 9.2143698 -0.0322802 -0.0184377 -0.0249679
54 2 9.0030499 8.9312802 8.9710598 0.143205 0.135139 0.140736
