ITEM: TIMESTEP
120000
ITEM: NUMBER OF ATOMS
54
ITEM: BOX BOUNDS pp pp pp
-0.1009592 11.0089397
-0.1009592 11.0089397
-0.1009592 11.0089397
ITEM: ATOMS id type x y z fx fy fz
1 1 10.9075004 10.9568996 10.8157997 0.0412437 0.033677 0.0764645
2 1 3.6099999 0.0318622 0.0271393 0.0099577 0.0310675 -0.0283303
3 1 -0.0583605 3.6328299 10.6430998 -0.0495192 0.0515739 0.359481
4 1 3.29513 3.59867 -0.0736064 0.15343 0.0704821 0.0245923
5 1 0.294532 10.9883004 3.487 -0.450847 -0.0153802 0.0077659
6 1 3.4449401 -0.0986536 3.61832 0.43722 0.0673698 0.0889737
7 1 10.9025002 3.6410699 3.4444499 0.155923 0.0492821 0.0462046
8 1 3.7163301 3.62308 3.8268001 -0.0387659 -0.0736545 -0.0886295
9 1 10.9445 10.8224001 7.20332 -0.0088735 0.13458 0.020044
10 1 3.48456 10.9875002 7.4414602 0.0225343 0.0247897 0.0150778
11 1 10.9601002 3.6096699 7.4282599 -0.0572454 0.0194862 -0.343626
12 1 3.3564601 3.5911401 7.27947 0.0795366 -0.0521935 0.0391679
13 1 -0.0077828 7.20048 10.9357996 -0.112104 0.0517785 -0.0402574
14 1 3.6477301 7.6630402 0.0740955 0.0098614 -0.135494 -0.0499789
15 1 10.9132996 7.3687101 3.45243 -0.001332 -0.0457325 0.0769629
16 1 3.3471401 7.12222 3.78336 0.0580092 0.0738547 -0.0469056
17 1 0.185589 7.3887601 7.29882 -0.0633967 -0.0593699 -0.0112771
18 1 3.89713 7.2032199 7.3427401 -0.184377 0.147747 -0.0774341
19 1 7.41327 10.6906004 -0.0060983 -0.0413322 0.0918336 -0.0687353
20 1 7.00596 3.4203999 10.9861002 0.121708 0.0775347 0.0895931
21 1 7.1843801 10.9947996 3.5153201 0.116162 0.090355 0.13906
22 1 7.4317003 3.81585 3.5187199 -0.119155 -0.0876632 -0.0190907
23 1 7.0560098 10.7823 7.3336702 0.103316 0.0661571 -0.0253369
24 1 6.96064 3.6114099 7.4713402 0.103301 0.0388883 -0.0597734
25 1 7.1319399 7.1538901 -0.0995734 0.0812865 -0.0196571 -0.100554
26 1 7.2298899 7.3129001 3.2616401 -0.0082893 0.0327996 0.15371
27 1 7.3856101 7.1451302 7.23313 0.0336856 0.0753707 -0.0468727
28 2 1.57943 1.82106 1.6374901 0.0150518 0.0044703 -0.003726
29 2 1.59722 1.7781201 5.4136701 0.0115927 0.0152135 0.0220466
30 2 1.75798 1.6935001 9.1956997 -0.0088143 -0.0172665 -0.0211093
31 2 1.5750001 5.6941901 1.63053 0.0755732 -0.0856123 0.0529292
32 2 2.06022 9.1294699 1.94801 -0.100768 -0.0095485 -0.0325818
33 2 1.63815 5.4661103 5.59585 -0.0046543 -0.034233 -0.0351489
34 2 2.0067201 9.2565804 5.6272803 -0.0413505 -0.0520432 -0.0351941
35 2 1.85326 5.40731 8.9777002 -0.0254457 0.0573839 0.0519841
36 2 1.5817 9.1082897 9.40096 0.0790352 0.0278275 -0.0609291
37 2 5.4871302 1.8430902 1.90725 -0.0321954 -0.0152558 0.0048864
38 2 9.3578501 1.6806001 1.98111 -0.0580431 -0.0452618 -0.078003
39 2 5.5164399 1.79404 5.72714 -0.0442673 -0.0382919 -0.0643441
40 2 9.10501 1.9576 5.1809602 0.0018558 -0.0488246 0.0646586
41 2 5.5040202 1.7984901 9.2511597 -0.106731 -0.112833 -0.0443997
42 2 9.3771296 1.9254 9.1987 -0.149301 -0.118664 -0.0492606
43 2 5.3041501 5.2855101 1.77068 -0.009534 0.0262931 -0.0135672
44 2 9.29072 5.1951099 1.41826 -0.0419375 0.0391687 0.0053988
45 2 5.50066 9.4438801 1.8871 -0.0995433 -0.0960716 -0.0605185
46 2 9.3219204 9.1068602 1.7448401 -0.0230767 0.0286491 -0.0273026
47 2 5.3702502 5.5897298 5.3642702 0.0665449 -0.036129 0.0046813
48 2 9.0196199 5.3698301 5.3705902 0.0560381 0.0391155 0.0388894
49 2 5.4712401 9.0702696 5.3492699 -0.012703 -0.0065352 -0.0074763
50 2 9.3146696 9.2458696 5.3506599 -0.0469363 -0.0296672 -0.0281286
51 2 5.21625 5.7348299 9.2413302 0.0807467 -0.15254 0.111696
52 2 8.9800502 5.54913 9.0750198 0.0452414 -0.0440839 0.0348533
53 2 5.4387203 9.1684198 9.1271 -0.0224046 -0.0242612 0.0483435
54 2 9.11061 9.0162802 9.1291399 0.0040899 -0.0104829 -0.0089741
