ITEM: TIMESTEP
104000
ITEM: NUMBER OF ATOMS
54
ITEM: BOX BOUNDS pp pp pp
-0.1055497 11.0135298
-0.1055497 11.0135298
-0.1055497 11.0135298
ITEM: ATOMS id type x y z fx fy fz
1 1 11.0056 0.124788 10.9695998 0.119478 -0.0714471 0.17805
2 1 3.6737499 0.225134 10.9504004 -0.0274628 -0.0887156 0.0207794
3 1 10.6183996 3.6877401 10.7468996 0.0223998 -0.0204829 0.0698856
4 1 3.2236099 3.7870901 -0.0951252 0.119471 0.0019337 0.0792331
5 1 10.9424 10.9996996 3.6731401 0.0071177 0.0869789 -1.831e-04
6 1 3.6008501 10.6590996 3.7979601 -0.0826937 0.252491 -0.0951911
7 1 -0.0578389 3.8183899 3.53177 -0.0013159 -0.0894337 0.0310399
8 1 3.6868601 3.11958 3.4449601 0.0964358 0.115487 0.112331
9 1 10.9720002 0.0278276 7.6662302 0.213338 -0.123107 -0.356171
10 1 3.70834 11.0081997 7.3845301 -0.0789637 -0.0733457 -0.0154315
11 1 10.6601 3.66645 7.2289801 0.214442 -0.0410185 -0.109883
12 1 3.44991 3.40467 7.3833499 0.0021894 0.0603747 -0.0578481
13 1 0.22001 7.1810999 -0.0957099 -0.0308458 0.0706261 0.0628679
14 1 3.87343 7.5990601 -0.0856263 -0.0368272 -0.0066273 0.0585702
15 1 -0.0428406 7.5581599 3.63797 0.0635703 -0.105237 0.0422014
16 1 3.80387 7.3119998 3.6308401 -0.0734833 -0.16845 0.0022827
17 1 0.0779841 7.5363698 7.47085 -0.134612 -0.0479629 -0.0618119
18 1 3.4682901 7.1596699 7.6574102 0.102201 0.0049418 -0.12361
19 1 7.5125199 10.9920998 5.0419498e-04 -0.0693465 -0.0505934 -0.0152201
20 1 7.0837498 3.5411201 -0.0396923 -0.0571699 -0.021822 -0.165918
21 1 7.2068801 0.0117577 3.6998999 0.0868086 -0.0454923 -0.0193174
22 1 7.3559499 3.9198 3.26191 0.0733098 -0.240924 0.118267
23 1 7.2459502 -0.10167 7.3928399 0.167457 -0.148366 -0.173904
24 1 7.1188698 3.50614 7.2718902 -0.0055123 -0.0110502 -0.0237765
25 1 7.4176002 7.2040501 10.9104996 0.0955031 0.0263188 -0.027965
26 1 7.27565 7.25174 3.5028801 0.112513 0.220594 0.0890547
27 1 7.3783398 7.15553 7.2637801 -0.090965 0.0952785 -0.0514596
28 2 1.82996 1.77349 1.82478 -0.102523 -0.0680403 -0.0619082
29 2 1.75193 1.73184 5.4254298 -0.0195403 -0.0148289 0.0075074
30 2 1.75254 1.87991 9.2966004 -0.0455771 -0.0251803 -0.0279777
31 2 1.96165 5.3653002 2.1459899 0.0163425 0.0593754 -0.0482136
32 2 1.91985 9.3712797 1.73033 -0.0346984 -0.0250023 -0.0292332
33 2 1.75579 5.5881 5.44594 8.7778702e-04 -0.0160079 0.0182202
34 2 2.0622001 8.92099 5.57022 -0.0580736 0.0084668 0.0290727
35 2 1.6183501 5.2520099 9.2414398 -0.0483617 0.0591706 -0.113559
36 2 1.84934 9.2895002 9.1843596 0.0066843 0.0181319 0.0390657
37 2 5.53721 1.41046 1.69451 0.0099311 0.0826889 0.0304701
38 2 9.13867 1.64936 1.47029 0.0236171 0.107792 0.123586
39 2 5.5025001 1.52643 5.4977398 -0.0486969 0.0560229 0.0132603
40 2 9.2310305 1.98903 5.27985 -0.0430617 -0.0353911 -0.0201116
41 2 5.6614199 1.45481 9.0127802 -0.0906432 0.155175 0.131189
42 2 9.1351204 1.6256501 8.8148098 -0.167994 0.176034 0.175235
43 2 5.6707201 5.8129401 1.66508 -0.113173 -0.0874173 -0.0488739
44 2 9.39252 5.5882802 1.86243 -0.0119229 0.0293744 -0.0572185
45 2 5.4050899 9.3561297 1.81273 0.0453137 -0.0266099 -0.0139284
46 2 9.2213497 8.8766004 1.84048 -0.028121 0.071664 -0.0609714
47 2 5.75001 5.2119899 5.2110601 -0.0975012 0.0556925 0.0683076
48 2 9.2978602 5.6645298 5.3670001 -0.0107175 -0.0048058 -0.0133756
49 2 5.3291798 9.1710596 5.4270501 0.12445 -0.0669903 0.101647
50 2 8.9618902 9.0826302 5.4650502 0.0184168 0.0222058 0.0013793
51 2 5.28265 5.2568598 9.0251904 0.0340655 -3.3051098e-04 0.0436833
52 2 9.0478096 5.3692002 8.7028799 -0.0272699 0.0606535 0.164756
53 2 5.88413 9.4001703 9.3699103 -0.100113 -0.0998666 -0.0176306
54 2 9.3572998 9.3384304 9.3366099 -0.0387459 -0.0729248 -0.0012498
