ITEM: TIMESTEP
162000
ITEM: NUMBER OF ATOMS
54
ITEM: BOX BOUNDS pp pp pp
-0.0902981 10.9982786
-0.0902981 10.9982786
-0.0902981 10.9982786
ITEM: ATOMS id type x y z fx fy fz
1 1 0.228114 10.9358998 -0.053051 -0.145583 0.007976 0.0042096
2 1 3.6412001 10.9346 10.8732996 0.11019 0.199119 0.126236
3 1 10.8855 3.39182 10.7865 0.0459601 -0.0053396 0.143658
4 1 3.6406701 3.61131 10.8134003 -0.0280304 0.0257423 0.173899
5 1 0.0269729 10.9573002 3.64813 -0.123807 0.0229876 -0.213981
6 1 3.39165 10.9007998 3.6590801 0.161694 0.0648309 -0.0466646
7 1 10.6899004 3.6285501 3.4428401 0.0946472 0.0497639 -0.0360641
8 1 3.7535501 3.6050601 3.6944499 -0.217846 0.014656 -0.0471924
9 1 10.9870996 -0.0146359 6.9551002 -0.0246695 0.0157125 0.264179
10 1 3.4156499 0.0768167 7.2348499 0.0107851 -0.137771 0.038668
11 1 10.8677998 3.6324101 7.3035202 0.0761881 0.0155645 -0.0615442
12 1 3.5497701 3.71644 7.4133501 0.0420176 0.086298 -0.12991
13 1 10.9702998 7.2238402 10.9385004 -0.0011439 0.039298 0.0352507
14 1 3.5739601 7.4861598 10.9406004 0.0686448 -0.288771 0.0133464
15 1 -0.007774 7.2579599 3.5894499 -0.0658381 0.0256311 0.0021113
16 1 3.6417301 7.2914801 3.4714 -0.0369756 -0.0427464 0.0548442
17 1 0.160537 7.2568998 7.2809 -0.146764 0.0496143 0.0309491
18 1 3.5861299 7.3568502 7.2937102 0.0964249 0.0365086 -0.0126316
19 1 7.5594301 0.0428294 10.9516002 -0.0656976 -0.0993611 0.0363689
20 1 7.2163601 3.6689101 10.9701004 -0.0047195 -0.0567285 -0.0060952
21 1 7.4470902 -0.040454 3.6089001 -0.0709864 -0.0335259 0.0126707
22 1 7.0683899 3.5868101 3.67271 0.156376 -0.0060915 -0.0935167
23 1 7.1485801 10.9575996 7.3673101 0.0128998 0.0149282 -0.0466207
24 1 7.4217201 3.47069 7.0826302 -0.101031 0.0442482 0.0919516
25 1 7.2799902 7.24545 0.260824 -0.124154 0.0732852 -0.20915
26 1 7.1374202 7.3231902 3.71525 0.0782093 0.0339002 0.0417858
27 1 7.3608298 7.4292403 7.61727 -0.0146616 -0.0901165 -0.0484324
28 2 1.70005 1.83118 1.8111301 0.0176408 0.0104771 -0.0037106
29 2 1.6966501 2.0683701 5.3523402 -0.0081518 -0.0189345 0.0053295
30 2 2.07689 1.89436 9.0468903 -0.136612 -0.056192 0.0574504
31 2 1.58638 5.5232902 1.77012 0.0387971 -0.0411172 -0.0234037
32 2 2.03722 9.0571899 1.6729601 -0.117189 0.0470046 0.0496319
33 2 1.7858401 5.5766802 5.4644399 0.0222633 -0.0472182 -0.0276119
34 2 1.59312 9.1590595 5.3608699 0.062599 -0.0434505 0.0315794
35 2 1.45419 5.3130598 9.29531 0.0789469 0.0185611 -0.0380821
36 2 1.94175 9.1920605 9.4531403 -0.126959 -0.0247618 -0.201815
37 2 5.3065701 1.7832201 1.7224601 0.0145743 -0.0203277 -0.0036087
38 2 9.1320496 1.55636 1.77378 0.0531284 0.0614786 0.0017002
39 2 5.05163 1.7895401 5.6866102 0.115525 0.0215513 -0.0674885
40 2 9.3937302 1.84109 5.25031 -0.0876655 -0.0352107 0.0441821
41 2 5.5004702 1.54715 9.2650604 -0.0053316 0.0556291 -0.0252182
42 2 8.9804802 1.87499 9.1361704 0.0178358 -0.027009 -0.0500258
43 2 5.41748 5.3242502 1.70142 -0.0283406 0.0211193 0.013786
44 2 8.8819304 5.4324699 1.67563 0.097646 -0.0696769 0.0917206
45 2 5.2400098 9.1141005 1.64535 0.0755252 0.0453293 0.0567578
46 2 9.1446896 8.8225003 1.7123701 0.0563175 0.0982646 0.0611471
47 2 5.4456601 5.54735 5.38938 -0.0209293 -0.0110538 0.0542702
48 2 8.9726 5.5731502 5.3646402 0.0294548 -0.0084534 0.0182962
49 2 5.3716402 9.2635203 5.3561201 3.0049801e-04 -0.0048209 0.0205186
50 2 9.1723499 9.3103905 5.48204 -0.0328982 -0.062285 -0.0168673
51 2 5.3835802 5.5738902 9.2887497 0.0188096 0.0089951 -0.0246687
52 2 9.1637001 5.3835201 9.4616003 -0.0409151 0.0313547 -0.0817817
53 2 5.4925099 9.2055397 9.4940501 0.0730959 -0.0246446 -0.0847565
54 2 9.1528797 9.2359305 9.1030397 0.0504048 0.0157774 0.0243423
