ITEM: TIMESTEP
164000
ITEM: NUMBER OF ATOMS
54
ITEM: BOX BOUNDS pp pp pp
-0.087672 10.9956522
-0.087672 10.9956522
-0.087672 10.9956522
ITEM: ATOMS id type x y z fx fy fz
1 1 10.7137003 0.0821052 10.9868002 0.202544 -0.192634 0.0369824
2 1 3.5339999 -0.0296631 10.8447 -0.0106881 -0.0149754 0.0053761
3 1 -0.0662146 3.4157901 10.8516998 -0.0318854 0.161232 0.0477199
4 1 3.6407001 3.6056299 0.118606 -0.0032895 -0.0418949 -0.0882618
5 1 -0.0012994 -0.0861484 3.6833501 0.0174646 0.0346569 0.0125515
6 1 3.6678901 10.9631004 3.35479 -0.0915003 0.0595043 0.0667739
7 1 10.8128004 3.64693 3.6346901 0.0588677 -0.20392 -0.0515476
8 1 3.3541999 3.95522 3.7796099 0.194621 -0.245423 -0.116823
9 1 10.7364998 0.0652432 7.3120499 0.48064 -0.280934 0.123877
10 1 3.6392 -0.0119107 7.2824502 -0.0077736 -0.0231468 -0.0389317
11 1 0.080577 3.5076499 7.2132902 -0.0908991 0.176129 0.0307074
12 1 3.7061999 3.67817 7.3855 0.0257756 -0.0541555 0.0182352
13 1 10.8793002 7.18959 10.9756002 -0.0088294 0.0128676 -0.0642461
14 1 3.5811801 7.2600799 10.8708 0.0615623 0.018749 -0.063949
15 1 0.107929 6.9559898 3.56794 0.0282954 0.187546 -0.0056077
16 1 3.88548 7.4349699 3.7439001 -0.0963178 0.0125857 -0.0810307
17 1 0.0862287 7.1108699 7.2122202 -0.11309 0.044571 0.0341327
18 1 3.5648701 7.1621499 7.1655598 0.0680251 0.0716815 0.115558
19 1 7.3769302 0.158665 10.9891006 -0.281183 -0.132933 -0.0842628
20 1 7.1387901 3.7478099 0.0517651 0.0740021 0.0337051 0.0014418
21 1 7.1098199 10.8111 3.40676 0.0877877 0.0491118 0.0520641
22 1 7.30655 3.6345001 3.88732 -0.011116 -0.013423 -0.0970935
23 1 7.5480199 10.7868996 7.1933198 -0.41215 0.113329 -0.0404335
24 1 7.5398999 3.4135301 7.44801 -0.142973 0.0367563 -0.101805
25 1 7.2098098 7.4976902 0.0771548 0.0418424 -0.0277579 -0.0414238
26 1 7.4422498 7.3299399 3.7000101 -0.0082129 -0.109439 -0.0311141
27 1 7.4112501 7.3400102 7.2948899 -0.031813 -0.0826306 0.0111379
28 2 1.83815 1.96722 1.95126 -0.0273176 -0.0219358 -0.010016
29 2 1.89395 1.9781 5.6547399 0.0317309 -0.0854554 -0.0922827
30 2 1.50448 1.77779 8.9305 0.111073 -0.0759332 0.0820437
31 2 2.1824601 5.5293002 1.6711201 -0.137455 0.0520869 0.0282691
32 2 1.73285 8.8092003 1.39657 -0.0097438 0.0880082 0.0810943
33 2 1.84272 5.4056101 5.4853101 -0.125601 0.0944183 0.125959
34 2 1.74672 9.03016 5.4331103 0.0030932 0.0219876 -0.005971
35 2 1.81793 5.3959599 9.2929001 -0.0150806 -0.0152933 -0.029329
36 2 1.50894 9.05373 9.0095501 0.0258039 0.0297853 0.0182798
37 2 5.4956899 1.94774 1.88495 -0.0108987 -0.0160405 0.0044197
38 2 8.9017602 1.72065 1.64362 0.0798828 0.100678 0.125218
39 2 5.6023898 1.67074 5.2312398 -0.0469149 -0.0213073 0.0596648
40 2 9.2838698 1.6842001 5.7501798 -0.145623 0.161049 -0.246098
41 2 5.5455799 1.87193 9.0856895 -0.0202762 -0.0276083 0.02189
42 2 8.9934196 1.60584 9.0650301 0.0573438 0.0470408 0.061489
43 2 5.3638501 5.5317898 1.9822 0.0488023 -0.0134572 -0.0304826
44 2 9.3565598 5.40622 1.68821 -0.0655664 -0.0166825 0.0016492
45 2 5.2086301 9.0370998 1.62762 0.027746 0.0420999 -0.0102433
46 2 9.4062204 9.1038904 2.2583301 -0.0197727 -0.0267021 -0.121288
47 2 5.4929099 5.4533701 5.3633399 0.0094327 0.0121739 0.0602696
48 2 9.3117304 5.2674198 5.5583601 -0.0453803 0.054218 0.02236
49 2 5.40445 9.0790005 5.7231202 0.0306833 0.0328338 -0.0326928
50 2 9.0278597 9.1431599 5.3189998 0.0869667 5.5293999e-04 0.0373961
51 2 5.46872 5.4149499 9.0770798 0.0077356 0.0250467 0.0175042
52 2 8.7483797 5.3971601 9.0481195 0.11324 0.0571391 0.0989247
53 2 5.58427 9.1763601 9.0562897 -0.0232236 0.0051193 0.0156757
54 2 9.0029602 9.3540297 9.1667996 0.0596131 -0.0929801 0.0662687
