ITEM: TIMESTEP
156000
ITEM: NUMBER OF ATOMS
54
ITEM: BOX BOUNDS pp pp pp
-0.0729055 10.9808856
-0.0729055 10.9808856
-0.0729055 10.9808856
ITEM: ATOMS id type x y z fx fy fz
1 1 0.070131 -0.0264338 0.16517 0.00411 -0.0461776 -0.0676451
2 1 3.6989601 0.123009 0.138466 0.0426331 -0.103755 -0.166593
3 1 -0.0314535 3.5212701 0.104029 0.0130096 0.0913052 -0.159568
4 1 3.57304 3.5776401 10.8816996 0.0393752 0.0973745 0.0233532
5 1 10.8169003 -0.0683434 3.67784 0.039207 -0.0470887 0.0373861
6 1 3.6269801 10.9305 3.4469099 -0.0391491 -0.0796454 0.165901
7 1 10.9420004 3.4008401 3.5924001 0.0289248 0.10123 0.0570148
8 1 3.86237 3.41768 3.4691701 -0.150521 0.128201 0.0451672
9 1 10.9560004 0.112125 7.5889201 0.0699814 0.0699579 -0.143026
10 1 3.5065701 10.9780998 7.3736301 0.0554652 0.0580208 -0.0552405
11 1 10.8535004 3.8673202 7.2915301 0.0344568 -0.178184 0.0284547
12 1 3.6642001 3.6623001 7.26932 -0.0647134 -0.0428408 -0.0475329
13 1 -0.0592947 7.1409202 0.0643634 0.0166774 0.0598572 -0.0067189
14 1 3.59182 7.4396301 0.191481 0.0236543 -0.020561 -0.104492
15 1 10.9639998 7.3723698 3.59795 0.0168641 -0.0682993 0.0644131
16 1 3.59218 7.0917201 3.64656 -0.0331271 0.0143059 0.0578495
17 1 10.9263 7.26541 7.5456 0.0132654 0.151429 -0.074122
18 1 3.5697201 7.4429598 7.3120899 -0.0035018 -0.0635014 -0.0314442
19 1 7.4938302 10.8557998 10.8986998 -0.0898784 0.0038714 0.0712076
20 1 7.2014899 3.4299901 10.9126998 0.0259479 0.0595242 0.0102449
21 1 7.2451 0.0691692 3.87792 -0.0557545 -0.0905955 -0.415742
22 1 7.28055 3.7339201 3.5504301 0.0987399 -0.0873384 0.0698339
23 1 7.2747402 -0.039153 7.10396 -0.0146715 -0.0935916 0.308659
24 1 7.2069802 3.3848 7.3259201 0.0135511 0.114502 -0.0369983
25 1 7.3270798 7.1206498 10.8766004 0.0553231 0.0599217 -0.0974402
26 1 7.1238298 7.23521 3.5164101 0.0852435 0.108046 0.0520818
27 1 7.1414399 7.3638501 7.11834 0.0553647 -0.0564468 0.0668886
28 2 1.97609 1.93511 1.7243001 -0.0596405 -0.036217 0.0410237
29 2 1.67596 1.75326 5.5208302 0.0101251 -0.0043883 -9.0899897e-04
30 2 1.83866 1.8485 9.2033796 -0.0236273 -0.0078901 -0.0129876
31 2 1.82548 5.3267698 1.65306 0.0087844 0.0113414 0.0487899
32 2 1.67609 9.1638298 1.82221 0.0185528 -0.0126404 0.0210127
33 2 1.7597701 5.1285 5.4794503 0.0155632 0.0591722 -0.0487852
34 2 1.56907 9.2451096 5.5827198 0.0081128 -0.0075089 -0.0053468
35 2 1.9798 5.6581002 9.1448898 -0.0295362 -0.0304326 0.0199598
36 2 2.0088 9.2598801 9.1581802 -0.0703591 -0.0267919 0.0684439
37 2 5.7284999 1.87444 1.91264 -0.0138812 -0.0974062 -0.0688538
38 2 9.2631502 1.86768 1.5527801 -0.106176 -0.0715811 0.0920496
39 2 5.1279702 1.61427 5.38517 0.0491445 0.0108528 0.061151
40 2 8.9240104 1.70314 5.3547902 0.130289 0.124585 0.0783216
41 2 5.32545 1.5969 9.1661396 0.0362079 0.0196983 -0.0185457
42 2 8.93917 1.73246 9.2210999 0.0636448 0.0246758 -0.0362962
43 2 5.7792201 5.5372501 1.58042 -0.143246 -0.0913717 0.0294615
44 2 8.98699 5.4604202 2.02122 0.0953673 0.0142855 -0.0807984
45 2 5.7821102 9.0544004 1.5792201 -0.0495038 0.0455423 0.0256107
46 2 9.1001396 8.8906804 1.7686501 -0.0039527 0.0430309 -0.0077536
47 2 5.6154399 5.3530502 5.3519802 -0.0532257 0.0054917 0.0435483
48 2 9.2256003 5.5713301 5.4653101 -0.0351743 5.12291e-04 -0.0219079
49 2 5.5941701 9.2255697 5.3439102 -0.0897878 -0.0380318 0.0082739
50 2 9.0450897 8.97791 5.3484001 0.0084751 0.0242061 0.0160773
51 2 5.27455 5.2526999 9.1014004 0.0698956 0.0708293 0.016782
52 2 9.3759203 5.4433298 9.2964401 -0.0784387 -0.033474 0.0189586
53 2 5.3994298 9.0364904 9.1352797 0.0202783 0.0267643 0.0173243
54 2 9.3460598 9.52067 9.1330099 -0.0583704 -0.162775 0.0435033
