ITEM: TIMESTEP
140000
ITEM: NUMBER OF ATOMS
54
ITEM: BOX BOUNDS pp pp pp
-0.0950165 11.0029964
-0.0950165 11.0029964
-0.0950165 11.0029964
ITEM: ATOMS id type x y z fx fy fz
1 1 0.13967 10.8739996 10.8806 -0.194837 -0.050834 0.07221
2 1 3.4251399 0.0115569 0.020499 0.229755 -0.0516472 -0.0897997
3 1 -0.0669306 3.48451 11.0015001 0.0104085 -0.0525385 -0.0187912
4 1 3.6468501 3.73386 10.8556004 -0.0319023 -0.0891612 -0.0105421
5 1 0.0499079 0.0557537 3.53142 0.0071382 -0.0530357 0.0534946
6 1 3.7813499 0.100791 3.5878501 -0.0242822 -0.131708 -0.0013417
7 1 10.8981 3.74913 3.4813099 -0.0020945 0.0145902 0.0197494
8 1 3.4807401 3.57408 3.5780301 -0.0546389 0.0600681 -0.0317223
9 1 0.0211665 -0.0132279 7.4277101 -0.322488 -0.241065 -0.304637
10 1 3.53138 10.9388 7.2692499 0.0767329 0.147787 0.0078396
11 1 -0.0151948 3.6008699 7.3407002 0.0177556 -0.0197957 -0.0050613
12 1 3.63215 3.72699 7.2300701 -4.8970098e-04 -0.0249773 -0.0213283
13 1 10.8955002 6.96411 0.0148502 -0.116882 0.164992 -0.0454244
14 1 3.31358 7.2911301 -0.0246351 0.073888 0.135289 -0.108825
15 1 -0.0270047 7.4833102 3.65202 -0.0405574 -0.0257102 0.0233236
16 1 3.5739999 7.27074 3.6090701 0.0184724 0.023592 0.0562392
17 1 -0.0505656 7.15555 7.4782701 -0.0063055 0.140106 -0.071263
18 1 3.6324501 7.5775299 7.48385 -0.0539082 -0.206468 -0.0728072
19 1 7.3847699 10.8344002 -0.0307089 -0.0125332 -0.0150399 -0.0036375
20 1 7.3498302 3.42378 10.9764004 -0.009443 0.0074295 0.0265378
21 1 7.63479 -0.0908375 3.70027 -0.0952954 -0.0116389 -0.0081958
22 1 6.9994898 3.6428001 3.61992 0.0702612 -0.0091099 -0.0072012
23 1 7.2091398 0.0383613 7.3049102 0.0461583 -0.0327734 0.0015859
24 1 7.5074201 3.57987 7.3793802 -0.0631151 0.0411584 -0.0316118
25 1 6.9284102 6.96808 10.8575002 0.101454 0.0745837 0.0633532
26 1 7.3734398 7.2211499 3.6691301 0.00686 0.0334146 -0.0789823
27 1 7.03267 7.54246 7.1426101 0.35315 -0.242438 0.28104
28 2 1.6913901 1.58269 1.7020101 0.0075196 0.104362 0.0144586
29 2 1.63432 1.83419 5.3997798 0.0293619 0.0042068 0.0102948
30 2 1.54985 1.5669301 8.8773098 0.258987 0.243313 0.235667
31 2 1.72052 5.5042901 1.48841 3.3415301e-04 -0.121479 0.146519
32 2 1.97809 9.0421495 2.0032499 -0.0600265 0.0877553 -0.0477387
33 2 1.6038801 5.5225101 5.4123302 0.0348936 -0.008934 0.0035416
34 2 1.6976301 9.3271504 5.5109 0.0023389 -0.0295253 -0.0217578
35 2 1.6461801 5.4849601 9.1448097 0.0549526 -0.0405283 0.0203434
36 2 1.71656 9.07722 8.93565 -0.0387929 0.04806 0.100039
37 2 5.4315701 1.7740801 1.59533 0.0038995 7.0116e-04 0.01476
38 2 9.1958504 1.59346 1.76423 0.0064033 0.0397736 -0.0268214
39 2 5.3463102 1.7719001 5.36094 0.0380395 0.023002 0.0630314
40 2 9.3435001 1.98558 5.3910599 -0.0276688 -0.0336669 0.0081671
41 2 5.5613499 1.60277 9.2349901 -0.0397069 0.0211373 0.0051793
42 2 9.1944799 1.6376 9.3961001 0.0063679 -0.0130089 -0.0469321
43 2 4.9800502 5.5345602 1.62384 0.0971372 -0.0275895 0.0625902
44 2 8.9400502 5.3643298 1.6644501 -0.0046366 -0.0051673 0.0176861
45 2 5.3719702 9.12749 1.6831501 0.0077292 -0.0049103 0.0106156
46 2 9.4331503 9.2785597 1.67289 -0.0150882 -0.0272214 0.0150509
47 2 5.2756901 5.8255 5.4698801 0.0122615 -0.102681 0.0152882
48 2 9.42484 5.4814902 5.7550702 -0.0825256 -2.09429e-04 -0.0871976
49 2 5.5054102 9.0030603 5.5534001 -0.200186 0.24886 -0.238982
50 2 9.13941 9.1483002 5.5932799 0.0308404 0.0015499 0.0050398
51 2 5.3709998 5.44382 8.97365 -0.0096956 -0.0203336 -0.030652
52 2 9.1985502 5.4890199 9.0472603 -0.0427676 -0.0288035 0.0449902
53 2 5.54667 9.10077 9.2617598 -0.0316286 0.0492778 0.0083473
54 2 9.2770596 9.0392599 9.1608 -0.0216038 0.00699 0.0042717
