ITEM: TIMESTEP
176000
ITEM: NUMBER OF ATOMS
54
ITEM: BOX BOUNDS pp pp pp
-0.0857009 10.993681
-0.0857009 10.993681
-0.0857009 10.993681
ITEM: ATOMS id type x y z fx fy fz
1 1 0.0711722 0.0753399 0.0602924 -0.0899305 -0.0350678 -0.0268376
2 1 3.53596 -0.059271 10.7877999 0.0354643 0.0914586 0.109317
3 1 10.8811998 3.7045501 -0.0144531 0.0390759 -0.0314461 -0.0625821
4 1 3.54156 3.82002 0.244257 -0.111342 -0.16051 -0.162432
5 1 10.9076004 10.8017998 3.79493 0.155815 0.168313 -0.192259
6 1 3.6384001 10.8415004 3.4913399 -0.0403194 0.0080042 0.0273568
7 1 0.0944946 3.53741 3.42045 -0.0100271 0.0285836 0.141401
8 1 4.0478401 3.31651 3.67903 -0.0805009 0.0921435 0.0322998
9 1 0.133322 10.9610996 7.3600702 -0.0847483 0.0327557 0.0701065
10 1 3.5126601 10.9681998 7.2662101 0.164078 0.0711649 -0.0672389
11 1 0.191186 3.7204101 7.4272499 -0.100427 -0.0751304 -0.128976
12 1 3.7476101 3.6727 7.3172999 0.0011032 -0.0378463 0.0030863
13 1 10.8203001 7.47262 0.127306 0.110938 -0.0520716 -0.03206
14 1 3.4498 7.3410301 10.9105998 0.0139443 0.0289494 -0.0437845
15 1 10.9436998 7.3406301 3.7999401 -0.0683232 -0.0459861 -0.0121861
16 1 3.39307 7.2644401 3.2955899 0.065798 0.0173359 0.19496
17 1 10.8520002 7.0882802 7.4895301 0.0467128 0.194686 -0.0869299
18 1 3.4421401 7.2817602 7.2670002 0.0758122 -0.090238 0.0317871
19 1 7.21208 -0.0345014 10.8171997 0.0126506 -0.071328 0.194371
20 1 7.2567301 3.61568 0.128201 -0.0205601 -0.0046593 -0.0503579
21 1 7.23279 10.6415997 3.8612102 0.0378761 0.223335 -0.0433691
22 1 7.6235399 3.65059 3.5650301 -0.0191218 -0.0219289 0.102581
23 1 7.6240101 0.111378 7.5314999 -0.29814 -0.332693 -0.459569
24 1 7.4301 3.78141 7.6125598 0.0730539 0.053284 -0.160164
25 1 7.17874 7.2455001 -0.0667727 -0.0300147 -0.0032263 -0.0099506
26 1 7.0599499 7.3423901 3.7260101 0.122813 -0.169248 -0.175146
27 1 7.1346798 7.42976 7.264 0.0078257 0.0432316 0.0668081
28 2 1.76178 1.71424 1.96675 0.0591503 -0.0351975 -0.0453605
29 2 1.92503 1.75342 5.40516 -0.0158587 0.0048192 -1.94154e-04
30 2 1.5926501 2.0069101 9.1943903 0.0821548 -0.0697655 0.0590348
31 2 1.50418 5.7065902 1.8098901 -0.0132425 -0.0670169 -0.0565306
32 2 1.77078 9.1215401 1.7156 -0.0342202 0.0468401 -0.0109689
33 2 1.72855 5.5075798 5.2326198 0.0252472 -0.03291 0.0408821
34 2 1.80618 8.9990998 5.8017402 -0.0905801 0.0515257 -0.136692
35 2 1.61391 5.6279502 9.2833204 0.0332039 -0.0298767 0.0273642
36 2 1.89265 9.1669197 9.1091204 -0.0900264 -0.0168157 0.0127466
37 2 5.4926601 1.56581 1.75755 0.0167437 -0.0097963 -0.0179363
38 2 9.03967 1.38718 1.86857 -0.0017444 0.0247159 0.0052008
39 2 5.7514401 1.79871 5.5317402 0.0218139 -0.0259124 0.0356364
40 2 9.43958 1.69391 5.53157 -0.0221826 0.0417344 0.0034716
41 2 5.8195 1.97579 9.0327997 -0.137737 -0.064484 0.0681635
42 2 9.1297302 1.62157 9.0022497 0.322251 0.30145 0.303709
43 2 5.0959702 5.61863 1.65019 0.172985 0.0418808 0.0740762
44 2 9.2146301 5.4828301 1.6467201 -0.0404506 0.0186035 0.0581182
45 2 5.3594098 9.1074305 1.6550401 0.011616 0.0049717 -0.0097109
46 2 8.9499102 8.95504 1.77211 -0.0239636 0.0577818 0.0474906
47 2 5.3310199 5.7602101 5.3326602 -0.0546941 -0.107681 0.0519482
48 2 8.9400702 5.7174301 5.5850802 0.0180328 -0.0429801 -0.022646
49 2 5.2948899 8.9236698 5.3186598 -0.0895874 0.0681336 0.0694599
50 2 9.4463797 9.3633299 5.5939298 -0.152983 -0.152816 0.137034
51 2 5.38939 5.52137 9.0033798 -0.0038075 0.0246008 0.0528519
52 2 9.3068199 5.4130602 9.1924801 -0.0658688 -0.0102993 0.0732864
53 2 5.0405598 9.2010803 9.10466 0.121879 -0.0485921 -0.0217868
54 2 9.1604204 8.7741299 9.2891903 -0.0576356 0.105221 -0.0588811
