ITEM: TIMESTEP
124000
ITEM: NUMBER OF ATOMS
54
ITEM: BOX BOUNDS pp pp pp
-0.1062094 11.0141897
-0.1062094 11.0141897
-0.1062094 11.0141897
ITEM: ATOMS id type x y z fx fy fz
1 1 -4.5465203e-04 10.7503996 10.9785004 -0.149036 0.0200351 0.007379
2 1 3.3173101 -0.0224056 -0.0288789 0.162303 -0.0098559 -0.146572
3 1 10.7475996 3.6345101 10.9350004 0.152721 -0.0237514 0.0956052
4 1 3.66165 3.65309 0.0614838 -0.0792881 -0.0786091 -0.0312231
5 1 -0.044126 0.0652876 3.5557101 2.1932299e-04 -0.0706563 0.0082552
6 1 3.8247001 0.0080869 3.3037 -0.108285 -0.0559543 0.184311
7 1 10.8134003 3.5783899 3.73153 0.0372992 0.0935969 -0.0818047
8 1 3.4626601 3.5999401 3.63501 -0.0538817 -0.0140745 -0.0031297
9 1 0.127188 10.9028998 7.3446498 -0.0168238 0.0265272 -0.0194512
10 1 3.8032601 10.7432003 7.3151498 -0.0740914 0.121928 0.0342996
11 1 10.9945002 3.4268999 7.3662501 -0.0232726 0.0614413 -0.0818959
12 1 3.6552301 3.57178 7.5170203 0.0013532 -0.0396381 -0.11389
13 1 -0.0208018 7.02072 -0.0462026 -0.0591591 0.14062 -0.033989
14 1 3.56281 7.1937299 -0.0718526 -0.0127301 0.0564559 0.025176
15 1 10.9653998 7.2484002 3.67588 -0.0141662 0.0231617 -0.04635
16 1 3.5322199 7.24511 3.7451999 0.0928292 -0.0763931 -0.0553269
17 1 0.0665709 7.2716799 7.20576 -0.0732661 -0.0249087 0.0510211
18 1 3.54649 7.23315 7.43012 0.0924522 -0.0387319 -0.0247874
19 1 7.3459702 -0.072772 10.9655 0.0794757 0.0969577 -0.0814925
20 1 7.2815299 3.72822 -0.0393983 -0.0101797 -0.0372259 -0.0446569
21 1 7.2350001 10.9376002 3.6615501 0.143695 -0.0194239 -0.0493614
22 1 6.9917998 3.4100599 3.4391999 0.182184 0.0486075 0.0319693
23 1 7.3573899 0.0144313 7.3204899 0.0659594 -0.0336328 0.0184643
24 1 7.42342 3.61585 7.1593399 -0.0557433 0.0161644 0.0526843
25 1 7.0764098 7.3906102 0.0560134 0.126361 -0.0743994 -0.127972
26 1 7.1511302 7.1901598 3.5100901 -0.0605864 0.107752 0.153959
27 1 7.2287202 7.2512798 7.4365402 -0.003338 0.021466 -0.0230532
28 2 1.71783 1.8927702 1.6877901 -0.0304282 0.001427 0.0126644
29 2 1.8057801 1.83172 5.4068999 -0.0039139 -0.0275883 0.0248676
30 2 1.5931601 2.10847 9.2194004 0.0639015 -0.104501 0.0642149
31 2 1.6733201 5.3489399 1.68083 0.0130128 -0.0162748 0.0484943
32 2 1.93761 9.0384197 2.0592599 -0.0473087 0.0268857 -0.0667242
33 2 1.8248301 5.3525901 5.6181598 -0.0111212 -0.0124258 -0.0185733
34 2 1.98887 9.0069904 5.3209 -0.0731343 0.0887891 0.0757481
35 2 1.83151 5.3080702 9.05579 -0.0424863 0.0346185 0.0486459
36 2 1.86276 9.0608597 9.1535902 -0.0128553 -0.0032413 0.0163632
37 2 5.46838 1.7627501 1.686 -0.0101809 -0.0216538 -0.0886074
38 2 9.1936302 1.7084 1.4378801 -0.0065445 -0.0168828 0.104073
39 2 5.62396 1.6958801 5.38831 -0.0669823 -0.0072345 0.0456923
40 2 9.0545197 1.92365 5.2951598 -0.0223188 -0.0766694 0.0316913
41 2 5.4769602 1.85412 9.0757704 0.0235565 -0.0406563 0.037855
42 2 9.0594502 1.84299 9.4919796 -0.0156377 -0.0496876 -0.141411
43 2 5.4045701 5.3512602 1.76491 -0.0220848 0.0397967 0.0136128
44 2 8.7760496 5.7037401 1.78393 0.132076 -0.106042 -0.0473027
45 2 5.6634202 9.4834605 1.33513 -0.183279 -0.054073 0.200458
46 2 9.1975098 9.23384 1.75795 -0.0069503 -0.0166617 0.008067
47 2 5.4375701 5.1069198 5.1754198 -0.0117271 0.085917 0.0972844
48 2 8.87253 5.6134901 5.3905101 0.0449422 -0.0204732 0.0030302
49 2 5.553 9.3577604 5.5272498 0.0212175 -0.0916447 -0.0427633
50 2 9.31812 9.2130203 5.62253 -0.0229483 -0.0023368 -0.0257285
51 2 5.4086399 5.1489902 9.3678799 0.0172367 0.101295 -0.0623454
52 2 9.34268 5.4845901 8.9914304 -0.0355118 0.0045639 4.6714502e-04
53 2 5.5209699 9.1183596 9.36378 -0.0367069 0.0195663 -0.0697316
54 2 9.2427797 8.9083796 9.0230999 0.003173 0.0277292 0.0317903
