ITEM: TIMESTEP
174000
ITEM: NUMBER OF ATOMS
54
ITEM: BOX BOUNDS pp pp pp
-0.1001141 11.0080938
-0.1001141 11.0080938
-0.1001141 11.0080938
ITEM: ATOMS id type x y z fx fy fz
1 1 10.8330002 -0.0271665 0.084267 0.102533 0.024157 -0.204372
2 1 3.5662501 10.9989996 0.0675797 0.061598 0.0926766 -0.0703281
3 1 0.116387 3.93747 -0.0900301 -0.0251823 -0.105927 -0.0399654
4 1 3.8348 3.5342701 -0.0099191 -0.0768942 0.0636891 0.0320477
5 1 0.0524415 0.0615 3.3910301 4.6599999e-04 -0.0669167 0.180239
6 1 3.72978 -0.0575946 3.66642 -0.0573607 -0.0737584 0.023314
7 1 10.9750996 3.71697 3.5204401 -0.0192049 -0.0629049 0.0213031
8 1 3.5127399 3.39889 3.79737 0.0819192 0.035428 -0.228324
9 1 10.9648 10.9497996 7.3377299 0.0410646 0.0605323 -0.0418547
10 1 3.6484001 10.7716999 7.5422602 -0.0437293 0.0446018 -0.0348704
11 1 10.9014998 3.6657501 7.2823901 0.0388679 -0.0292481 -0.052247
12 1 3.4668 3.39729 7.1241002 0.160386 0.0764074 0.266539
13 1 -0.0021469 7.3864298 10.8212004 7.9204398e-04 0.0723533 0.0107265
14 1 3.66818 7.41043 0.112623 -0.0100131 -0.128591 -0.145185
15 1 10.9231006 7.2495198 3.4271 0.170191 0.158596 0.14148
16 1 3.5574701 7.42062 3.64854 0.0094369 -0.0521533 0.0247258
17 1 10.8655996 7.2416701 7.2497702 0.031258 0.0114037 -0.0677367
18 1 3.3088901 7.1765499 7.3264899 0.142678 0.08623 -0.0766256
19 1 7.4053898 -0.0692085 10.9238998 -0.166365 -0.0981174 -0.085231
20 1 7.4032798 3.48856 0.248954 -0.0154717 0.134042 -0.141056
21 1 7.4124899 10.9655 3.6865201 -0.171043 -3.93031e-04 -0.105732
22 1 7.37287 3.6803801 3.7716801 -0.147905 -0.165976 -0.13331
23 1 7.1961899 -0.0177223 7.2780299 0.0882592 -0.0207196 0.085815
24 1 7.2887101 3.94119 7.2852402 0.0113323 -0.168224 0.0332125
25 1 7.3287101 7.27318 10.7797003 0.0517213 -0.0471867 0.121841
26 1 7.4890099 7.6062002 3.53471 -0.140449 -0.1849 -0.0166759
27 1 7.33986 7.3832698 7.33113 -0.0461038 0.0045731 -0.122656
28 2 1.57616 1.8926002 1.64011 0.055857 0.0141542 -0.0075217
29 2 1.7012 1.8090301 5.7024899 -0.105252 -0.124526 -0.102744
30 2 1.62936 1.8303401 9.0913601 0.0115681 -0.0147208 0.026481
31 2 1.7751 5.4546099 1.89683 0.0475401 0.0179187 -0.0120557
32 2 1.94345 9.2398501 1.55644 -0.122448 -0.0323836 0.115409
33 2 1.8804 5.17559 5.3188801 -0.0758272 0.104925 0.0428474
34 2 1.6285501 9.2028503 5.4033098 0.001937 -0.0018053 0.0013081
35 2 2.0041699 5.3750601 8.97822 -0.0941386 -0.0873619 0.111871
36 2 1.69457 9.2872296 9.3064604 0.0075784 -2.17766e-04 -0.0177948
37 2 5.4765401 1.66062 2.00841 0.0135333 0.0255168 -0.0336095
38 2 8.72717 1.5110901 1.7282501 0.177222 0.0419093 0.116605
39 2 5.4719601 1.4819501 5.6017599 -0.047237 0.0895648 -0.0511128
40 2 9.1480999 1.33894 5.2225299 0.104443 0.152386 0.121105
41 2 5.23591 1.7392 9.2867203 0.0529494 -0.0302045 -0.0447683
42 2 9.3561001 2.01405 9.2177696 -0.0381916 -0.0357002 0.0204448
43 2 5.59722 5.5714302 1.80518 -0.0032357 -0.0059932 0.0109251
44 2 9.4153795 5.8642602 1.58304 -0.141609 -0.132793 -0.0789268
45 2 5.4938202 9.0211697 1.65806 0.0477952 0.0669093 0.0400886
46 2 9.0985003 9.2342596 1.6332901 0.0148671 -0.0180449 0.0024768
47 2 5.4622898 5.39358 5.3432298 -0.0363543 0.0402126 0.0099028
48 2 8.9490204 5.4183402 5.1496201 0.148381 0.153734 0.133443
49 2 5.25454 9.1908798 5.4810901 0.0468779 -0.0278864 0.0151523
50 2 8.9218502 9.2059898 5.5350499 0.0813704 -0.0019821 0.0262225
51 2 5.3975001 5.2452898 9.0248499 -0.0388928 0.0541997 0.0463831
52 2 9.27528 5.3745198 9.1107998 -0.0304068 0.0365331 0.0345901
53 2 5.691 8.9688302 9.0953302 -0.0944957 0.0786289 0.0158181
54 2 9.2711096 9.2208004 8.90026 -0.0566145 -0.022647 0.0823878
