ITEM: TIMESTEP
158000
ITEM: NUMBER OF ATOMS
54
ITEM: BOX BOUNDS pp pp pp
-0.0874344 10.9954148
-0.0874344 10.9954148
-0.0874344 10.9954148
ITEM: ATOMS id type x y z fx fy fz
1 1 10.8823996 -0.0523611 -0.0848275 0.0339115 -0.0596922 0.0094044
2 1 3.56878 10.9692002 0.210002 -0.0785654 0.0519561 0.0065934
3 1 10.9273006 3.4635301 10.8083 0.0604322 0.0651545 0.0359318
4 1 3.5840099 3.73138 0.0014638 0.0182281 -0.0759904 -0.0858851
5 1 10.8962002 10.9817 3.4644599 0.0948969 0.0650243 -0.0788195
6 1 3.8684002 10.9415998 4.0225902 -0.0767314 0.0526898 -0.0877988
7 1 10.8620006 3.4807201 3.4368301 0.0111144 0.163864 0.007152
8 1 3.7212999 3.4927001 3.4438501 -0.0196158 0.0803597 0.120025
9 1 10.9758998 10.9680004 7.26016 0.0922217 -0.047217 -0.0072905
10 1 3.63765 10.8308001 7.5475402 0.026441 0.0887944 -0.0139526
11 1 10.9778004 3.45204 7.0158501 0.128841 0.0711303 0.157622
12 1 3.66552 3.73436 7.1155801 0.0613516 -0.114976 0.150557
13 1 10.7932997 7.43294 10.9803 0.0379602 -0.0514936 -0.0907481
14 1 3.5463801 7.3402901 0.133881 -0.0992097 0.0931752 -0.151197
15 1 10.9769002 7.5397702 3.34828 -0.0634208 -0.172244 0.0942065
16 1 3.3783901 7.2578001 3.7544501 0.154896 -0.104964 -0.0675368
17 1 0.140851 7.1717 7.1677599 -0.0231079 0.0219043 0.0149229
18 1 3.787 7.3861098 7.44554 -0.0710019 -0.076407 0.0208724
19 1 6.98201 -0.0640168 0.0699527 0.147403 -0.0272139 -0.015257
20 1 7.4542899 3.47048 10.6997996 -0.0686218 0.026226 0.102436
21 1 7.4071498 0.205164 3.5950899 -0.0377335 -0.0810545 0.110207
22 1 7.4298001 3.94451 3.6737001 -0.0926917 -0.175647 -0.0877689
23 1 7.5295301 10.8598004 7.4415398 -0.164001 0.163961 -0.115603
24 1 7.4682298 3.6173201 7.1402898 -0.0635695 0.0088731 0.0761079
25 1 7.1893902 7.1195302 10.7886 0.0217655 0.163638 0.160461
26 1 7.2961402 7.2851601 3.7126501 -0.0316119 0.177571 0.002441
27 1 7.2460899 7.3436399 7.3115201 0.0152259 -0.119121 -0.119277
28 2 1.6735 1.92474 2.0636699 0.0610296 -0.0995945 -0.141738
29 2 1.3881201 1.58968 5.16815 0.108506 0.0257014 0.0738745
30 2 1.91243 1.7033401 8.9729204 -0.0283819 0.0300691 0.0298024
31 2 1.54363 5.5195499 1.7535301 0.0112085 -0.0213358 -0.006445
32 2 1.76807 9.0471001 1.75431 0.0037293 0.0716814 -0.0081231
33 2 1.94714 5.2247901 5.51294 -0.101674 0.0749336 -0.0930793
34 2 1.8272801 9.0730305 5.1833401 -0.0929953 0.0934996 0.119405
35 2 1.7071001 5.2487702 9.33885 0.0035966 0.0570188 -0.055873
36 2 1.83389 9.2297201 9.3879805 -0.0251582 -0.022685 -0.0142883
37 2 5.5261102 1.78275 1.93837 -0.0029875 0.0118172 -0.044452
38 2 9.0197697 1.74936 1.75172 0.0271344 0.0341049 -0.055285
39 2 5.5475002 1.94646 5.5539499 0.0076783 -0.0328404 -0.0190276
40 2 9.2477799 1.91966 5.3980098 -0.0879026 -0.104448 -0.0488896
41 2 5.5201803 1.80162 9.11866 -0.0264817 -0.0093726 -0.0201359
42 2 9.2727299 1.55503 9.2012501 -0.0480561 0.028763 -0.0586782
43 2 5.27355 5.7088199 1.50892 0.123846 -0.124181 0.154717
44 2 8.8804398 5.7683401 1.81169 0.0719829 -0.0510824 -0.0561874
45 2 5.4340301 9.1028204 2.14746 -0.0034352 0.0064694 -0.0406578
46 2 8.9614 9.1611099 1.67781 -0.0184138 0.0165172 -0.0013344
47 2 5.39539 5.4685602 5.37537 0.0113256 0.0197494 0.0057074
48 2 9.3540602 5.3970199 5.4840298 -0.0129306 0.059465 -0.0261357
49 2 5.5071602 9.0250301 5.5082102 0.0203788 0.0062046 0.0198572
50 2 9.4647503 9.2705202 5.1518302 -0.123486 -0.0611269 0.125988
51 2 5.6267801 5.40028 9.1922197 -0.0965895 -0.0650657 -0.0822641
52 2 8.9832602 5.60705 9.1118498 0.0882699 -0.057039 -0.0459492
53 2 5.6499 9.2904101 9.2256298 -0.0519335 -0.0544864 -0.0106838
54 2 9.0538101 8.9376298 8.75805 0.166933 -0.0210367 0.152069
