ITEM: TIMESTEP
150000
ITEM: NUMBER OF ATOMS
54
ITEM: BOX BOUNDS pp pp pp
-0.1521258 11.0601063
-0.1521258 11.0601063
-0.1521258 11.0601063
ITEM: ATOMS id type x y z fx fy fz
1 1 11.0537996 -0.119302 -0.148058 0.0384924 -0.0659537 0.0424525
2 1 3.66501 -0.0447919 0.030319 -0.0314215 -0.0566736 -0.0061297
3 1 -0.113164 3.4466801 10.9898996 -0.0056808 0.0539367 0.0130715
4 1 3.5899101 3.5037899 11.0353003 -0.0276079 0.0456578 0.010004
5 1 10.9968996 10.8570996 3.6939001 0.0791953 0.0751352 -0.0474339
6 1 3.6656201 -0.0864946 3.8317399 -0.0318806 -0.0215271 -0.0907445
7 1 11.0414 3.5568199 3.6837201 -0.0177127 0.0420518 -0.0759218
8 1 3.74913 3.75663 3.4610701 -0.0663662 -0.0300661 0.0453119
9 1 11.0067997 -0.0879048 7.5012203 0.0687567 -0.09742 -0.119304
10 1 3.70555 10.9764004 7.33041 -0.0297597 0.0333412 0.0451081
11 1 0.0105495 3.62835 7.23771 -0.161924 -0.0130761 0.0548735
12 1 3.3663199 3.6556399 7.2554302 0.172995 -0.0434783 0.033484
13 1 -0.132614 7.2961502 11.059 -0.0549833 0.0016838 0.0047028
14 1 3.51491 7.1499 -0.108915 0.0687628 0.0606468 0.0152834
15 1 11.0237999 7.2836599 3.6921101 0.0201314 -0.0093084 -0.0850198
16 1 3.45138 7.3010402 3.6094201 0.0547893 0.0547555 0.0030038
17 1 10.9924002 7.23315 7.2455602 -0.0021942 0.0254764 0.0729496
18 1 3.64799 7.43011 7.51757 -0.0451653 -0.0960039 -0.120871
19 1 7.2930298 -0.10586 0.123679 -0.0064534 -0.033602 -0.152102
20 1 7.31146 3.57913 11.0049 8.4979801e-04 -0.009953 0.0176129
21 1 7.4237299 0.0307446 3.50368 -0.0246638 -0.0543147 0.154551
22 1 7.3343101 3.5764699 3.6914201 0.0615635 0.07083 -0.0174851
23 1 7.39644 -0.0708393 7.4910898 -0.0491153 -0.0082479 -0.0161509
24 1 7.2031102 3.7499399 7.26472 0.05766 -0.16107 0.0641399
25 1 7.1656699 7.2930799 11.0247002 0.0626016 -0.0049466 -0.0237489
26 1 7.3815298 7.59586 3.4862001 0.050596 -0.0753229 -0.0091296
27 1 7.2781801 7.18365 7.3983302 0.0863009 0.195355 0.0589957
28 2 1.4772201 1.6799701 1.94919 0.0356407 -0.0096735 -0.0268131
29 2 1.65065 1.8619602 5.2749801 0.0338873 -0.04041 0.0341228
30 2 1.69275 1.41267 9.0623999 0.0551081 0.0655891 0.0478063
31 2 1.75491 5.5723801 1.55974 -0.0433495 -0.0603446 0.0591407
32 2 1.6601501 9.26542 1.7029901 0.0113023 -0.0118164 0.0053581
33 2 1.90561 5.4654198 5.5032301 -0.0460234 0.0310619 -0.0317784
34 2 1.64167 8.8929006 5.6145802 0.0233304 0.0563207 -0.0137369
35 2 1.6287 5.6770802 9.2681704 0.0079947 -0.065142 -0.0391636
36 2 1.8208701 8.9457398 9.3220396 -0.0367537 0.0674653 -0.0021739
37 2 5.5775299 1.9007 1.99092 -0.0268003 -0.0350782 -0.0661654
38 2 9.2475405 1.5713001 1.68584 0.0248408 0.0524847 0.0108119
39 2 5.44589 1.7026201 5.4625201 0.0176668 0.0238735 0.0230991
40 2 9.3318901 1.72585 5.4897199 -0.0216665 0.0019472 0.0092543
41 2 5.1643 1.86153 9.1357203 0.048477 -0.0246856 -0.0196415
42 2 9.3647099 1.50976 9.2126799 -0.0741881 0.0886667 0.0418965
43 2 5.6984701 5.55618 1.85349 -0.0257794 -0.0141065 -0.0083622
44 2 9.1394596 5.4824901 1.67634 0.0070836 -0.004567 0.0046729
45 2 5.4412799 8.95181 1.58864 -0.0366482 0.049525 0.0240017
46 2 9.3419399 9.1583405 1.4688 -0.0290805 -0.0017836 0.0398508
47 2 5.85074 5.6438799 5.5776501 -0.153864 -0.0334497 -0.155286
48 2 9.1535397 5.6856199 5.3323398 -0.022461 -0.0477392 0.0197945
49 2 5.6895199 9.1093197 5.2477398 -0.0548514 0.0480848 0.0675185
50 2 9.2930403 9.5563402 5.6279001 -0.0643893 -0.08445 0.0124442
51 2 5.3070502 5.3913002 9.0707798 0.0058768 -0.0044424 0.0325518
52 2 9.0977602 5.3905702 9.22575 0.022426 0.0047954 -0.0031071
53 2 5.2452598 9.0630102 9.2820902 0.061228 0.0533682 0.0425769
54 2 9.1010304 9.0060101 9.1111298 0.0132269 0.0166006 0.0198232
