ITEM: TIMESTEP
142000
ITEM: NUMBER OF ATOMS
54
ITEM: BOX BOUNDS pp pp pp
-0.0896983 10.9976788
-0.0896983 10.9976788
-0.0896983 10.9976788
ITEM: ATOMS id type x y z fx fy fz
1 1 10.9694004 1.91609e-04 10.9651004 0.0200724 -0.0535357 -0.0716074
2 1 3.74209 0.0110165 10.8641996 -0.0977552 -0.183902 0.0681412
3 1 0.0299837 3.5638001 -0.0146486 -0.0495201 0.0053365 0.0010673
4 1 3.5939 3.4075699 10.9789 0.0113979 0.221574 0.101878
5 1 10.9669 -0.0443967 3.3025801 0.0743694 -0.0326361 0.113689
6 1 3.5559299 10.6275997 3.4863901 -0.0597009 0.159325 -0.0230463
7 1 0.04527 3.45437 3.7204399 -0.0879076 0.157301 -0.11953
8 1 3.70944 3.62923 3.7877901 -0.161815 -0.127366 -0.12985
9 1 0.0579835 0.0380663 7.09763 -0.101285 -0.0030421 0.112182
10 1 3.6136501 10.9884006 6.8966498 0.0823558 0.0698523 0.15691
11 1 10.8181 3.63501 7.1806998 0.0332512 0.0194805 0.0649222
12 1 3.4435001 3.48629 7.2951498 0.0166911 0.0208663 0.0268748
13 1 10.8387003 7.1447101 10.8746996 0.117495 0.0580434 0.0256182
14 1 3.4502599 7.25844 0.0694063 0.0909326 -0.017839 -0.172166
15 1 0.0571518 7.4005399 3.5439799 -0.0293638 -0.0495117 -0.0508106
16 1 3.5936899 7.13835 3.5183201 0.208952 0.128655 0.185881
17 1 -0.013889 7.4331298 7.04667 -0.141399 -0.0522796 0.0956498
18 1 3.39187 7.50914 7.2262101 0.137173 -0.0887413 0.0449112
19 1 7.1458001 0.156774 -0.0109406 0.0913101 -0.267204 -0.104316
20 1 7.3901 3.4641099 0.0408394 -0.0130695 0.155572 0.0574701
21 1 7.2385602 0.114452 3.3236101 -0.0457755 -0.154363 0.276887
22 1 7.0440698 3.6466601 3.93905 0.300168 -0.0315963 -0.180154
23 1 7.5065599 -0.0343081 7.4583302 -0.122463 0.0258361 -0.193539
24 1 7.3350601 3.6736501 7.6535402 -0.0668617 -0.0359648 -0.129733
25 1 7.4464998 7.29495 10.7426996 -0.152986 0.0435249 0.0607453
26 1 7.5167599 7.4842 3.6812899 -0.0587336 -0.0154514 -0.129787
27 1 7.1803899 7.46104 7.1415 0.0122683 -0.0501655 0.0607955
28 2 1.89274 1.86756 1.7599 -0.0090631 -0.0445274 0.0295949
29 2 1.58312 1.69831 5.2923298 0.116 -0.024529 0.0246237
30 2 1.9755502 1.63439 9.3084898 -0.101301 0.0137611 -0.0951026
31 2 2.01805 5.5246701 1.98574 -0.160063 -0.16871 -0.118196
32 2 1.78281 9.0080404 1.62663 -0.0532913 0.0610297 0.0141175
33 2 1.9046 5.4977598 5.40166 -0.0433166 -0.0144144 0.0227243
34 2 1.67741 9.3286801 5.5300799 0.0045274 -0.0601814 -0.115244
35 2 1.63804 5.2328301 9.0514097 0.0102464 0.0367771 0.0070708
36 2 1.66502 9.1237803 9.2179098 -0.0012403 0.0145581 -0.0027427
37 2 5.4774399 1.7508301 1.71665 -0.0945341 0.0770219 0.0396577
38 2 9.0611696 1.80711 2.1091101 0.0699957 0.130828 -0.13536
39 2 5.5411902 1.76494 5.5504899 -0.0144954 -0.0366547 0.028811
40 2 9.0263205 1.71182 5.31358 0.0164707 5.7867699e-04 0.0353117
41 2 5.3765998 1.94506 9.3058396 0.0696889 -0.0545165 -0.0971894
42 2 8.9533396 1.5184701 9.3141003 0.12125 0.136488 9.4287396e-04
43 2 5.72643 5.6206198 1.5407 -0.0438744 -0.0136368 0.0339331
44 2 8.8785896 5.2592301 1.87879 0.0624597 0.0291219 0.0169253
45 2 5.4095302 9.23382 1.86786 0.067617 -0.0747472 -0.0889601
46 2 9.1884604 9.2743101 1.7101701 -0.0271218 -0.0314279 -0.0323642
47 2 5.4081998 5.1684399 5.5257001 -0.0657789 0.182551 0.162354
48 2 9.0378199 5.5423103 5.3174801 0.0396366 -0.0225124 0.0380148
49 2 5.74331 9.3366499 5.2774 -0.033606 0.0122936 0.0150409
50 2 9.41961 9.3207502 5.1768498 -0.044603 0.0077855 0.0460334
51 2 5.2938099 5.1708398 9.2012501 -0.0068311 0.0706884 0.0096822
52 2 9.09132 5.29771 9.3120699 0.0479016 -0.0023609 -0.0218643
53 2 5.48065 9.5103197 9.03547 -0.0064478 -0.055032 -0.0060628
54 2 9.0349302 9.3682499 9.1670704 0.0719718 -0.0720008 0.0391637
