ITEM: TIMESTEP
108000
ITEM: NUMBER OF ATOMS
54
ITEM: BOX BOUNDS pp pp pp
-0.0926599 11.0006399
-0.0926599 11.0006399
-0.0926599 11.0006399
ITEM: ATOMS id type x y z fx fy fz
1 1 0.177295 0.236358 -0.0740148 -0.0815721 -0.144628 0.0222741
2 1 3.6921201 10.6597996 10.6997004 0.0047289 0.0555145 0.264217
3 1 10.9926996 3.6312599 10.7595997 -0.0024641 0.11741 0.0426746
4 1 3.4818101 3.3297701 10.8954 -0.012188 0.0373789 0.0863667
5 1 -0.0352941 10.9743996 3.5279901 -0.0698456 0.0086224 0.0110045
6 1 3.6008301 -0.0201702 3.60269 0.0204902 -0.153659 0.0451834
7 1 0.192108 3.6599901 3.51788 -0.225991 -0.109198 0.123764
8 1 3.6246901 3.4271801 3.68394 0.0552039 0.128181 -0.0253664
9 1 -0.0837447 10.8603002 7.19734 -0.0698726 -0.0381948 0.0412893
10 1 3.7068 -0.0813319 7.3688598 -0.317531 0.0794775 -0.0915141
11 1 10.8759004 3.4996801 7.1656499 0.0883989 0.0593352 -0.0952504
12 1 3.5613101 3.53703 7.24405 -0.0370434 0.0335739 0.0164584
13 1 10.7286997 7.52174 10.9841996 0.0698995 0.0347742 -0.0406723
14 1 3.4013801 6.9713402 -0.0124496 -0.0173418 0.0290009 -0.009505
15 1 0.269633 7.3572202 3.6677499 -0.29224 3.1075602e-04 -0.0619812
16 1 3.53208 7.2869301 3.7750299 0.311376 0.0163139 -0.146169
17 1 -0.0794677 7.1059799 7.3125401 0.0629208 0.0440883 0.0038905
18 1 3.8041899 7.3425498 7.2666798 -0.150549 -0.198335 0.192956
19 1 7.3913698 -0.055334 -0.0735181 -0.0125495 0.0166247 -0.0238025
20 1 7.2772799 3.7584501 10.9541998 0.0114528 -0.138228 0.0994315
21 1 7.1159101 10.9026004 3.81441 0.102712 -0.107092 -0.0871537
22 1 7.2014599 3.41642 3.74439 0.0995848 0.158946 -0.172266
23 1 6.94828 0.0451322 7.1658101 0.297392 0.0016711 0.184185
24 1 7.1362901 3.8100901 7.4232502 0.0109227 -0.0289866 -0.0457505
25 1 7.1201501 7.1766601 0.0168268 0.131235 0.177133 0.0161174
26 1 7.4440699 7.08494 3.5260799 -0.0231411 0.0735262 0.0382074
27 1 7.53683 7.4554601 7.3144899 -0.139169 -0.0628989 0.025268
28 2 1.94854 1.6596 2.0113101 -0.0595755 0.0343131 -0.102495
29 2 1.5534901 1.51731 5.5298701 0.0619979 0.05545 -0.0264912
30 2 1.6446001 1.6159901 8.97532 0.0477494 0.0527298 -0.0451396
31 2 1.64665 5.1736898 1.7661801 0.129706 0.117141 -0.121047
32 2 1.68977 9.1393099 1.63437 0.0258104 0.0081413 -0.0020473
33 2 1.88295 5.6651802 5.42024 -0.0249724 -0.121196 0.0874597
34 2 1.91368 9.1741505 5.31388 -0.0300522 0.0511398 0.0770336
35 2 1.68887 5.3453598 9.0940504 0.0226549 0.0091168 -0.0193334
36 2 1.81284 9.2414103 9.0691299 -0.0635761 -0.0714896 -0.0364052
37 2 5.6341 1.4652801 1.98406 -0.0435099 0.0655376 -0.0886331
38 2 9.2364102 2.0564699 1.45029 -0.0151899 -0.0337415 0.0602842
39 2 5.5563102 1.92721 5.4281001 -0.127805 -0.0622758 0.0794652
40 2 8.8270397 1.8651202 5.4863701 0.0897177 -0.0584072 0.047372
41 2 5.1886401 1.70487 9.2802 0.107848 -0.0019517 -0.0536345
42 2 9.1202297 2.1543701 8.88311 -0.0729292 -0.137609 0.096202
43 2 5.3856502 5.5226898 2.01349 -0.0189712 -0.0495183 -0.0247254
44 2 9.5560398 5.7276502 1.80842 -0.0591252 -0.0762938 0.0209378
45 2 5.2881498 8.8308802 1.54977 -0.0187918 0.0613035 0.0610304
46 2 8.9806996 9.3716803 1.85676 0.0227162 -0.0346217 0.0020953
47 2 5.6013098 5.44413 5.49679 -0.0361208 0.0273751 -0.0207715
48 2 9.1312199 5.4836703 5.3224902 0.0350647 -0.0393915 0.0322289
49 2 5.1410999 9.1847 5.8009501 0.193266 0.0579969 -0.243826
50 2 9.1200199 8.8978902 5.4203601 0.0587322 0.069755 -0.0552456
51 2 5.6191402 5.5768299 9.4416199 -0.152115 -0.0599491 -0.16004
52 2 9.1088696 5.38412 9.0871096 0.0139358 0.046735 0.0109677
53 2 5.4566698 9.0772896 9.0717297 0.0709937 -0.0327079 9.7220001e-04
54 2 9.00459 9.2352505 9.1324701 0.0277205 0.0317564 0.0099294
