ITEM: TIMESTEP
160000
ITEM: NUMBER OF ATOMS
54
ITEM: BOX BOUNDS pp pp pp
-0.0588212 10.9668026
-0.0588212 10.9668026
-0.0588212 10.9668026
ITEM: ATOMS id type x y z fx fy fz
1 1 0.0974712 -0.0342582 0.0212449 -0.201793 0.0354131 -0.0507205
2 1 3.36636 -0.0572407 10.8464004 0.2713 0.0750982 0.0884148
3 1 0.0338902 3.628 0.0015068 -0.0075351 0.0176137 0.0012511
4 1 3.93322 3.74826 10.9293004 -0.161564 -0.059406 -0.121177
5 1 10.8487998 0.0161536 3.5174001 0.0265098 -0.0152695 0.0754016
6 1 3.4767599 10.8212996 3.78331 0.0442087 -0.0150885 -0.0831839
7 1 0.0453118 3.72892 3.61781 0.139901 -0.0919882 -0.0243095
8 1 3.9751502 3.4431601 3.4686799 -0.173104 0.0667522 0.169229
9 1 10.9086 10.8536998 7.2434702 0.0835806 0.085948 0.0023622
10 1 3.44992 0.0240057 7.3529601 -0.0514823 0.0525673 -0.14347
11 1 0.0497795 3.6020201 7.3274698 -0.0792785 -0.0967198 0.0416142
12 1 3.6670599 3.7278099 7.17489 -0.101414 -0.0526691 0.0330458
13 1 10.7250004 7.4527798 0.0496399 0.119808 -0.0806378 0.203668
14 1 3.6733101 7.5463801 10.8649998 -0.0768962 -0.156351 0.0215275
15 1 -0.0291325 7.2530699 3.86951 -0.0818448 0.017402 -0.216337
16 1 3.7114699 7.0379601 3.53597 -0.088201 0.077773 -0.0151563
17 1 0.195687 7.1765099 7.89458 -0.2624 0.0329326 -0.382629
18 1 3.51493 7.3901401 7.4053302 0.0601313 -0.104486 -0.185169
19 1 7.3221598 10.8974 10.8737002 -0.0343395 0.0404878 0.0914313
20 1 7.4122501 3.7558201 10.7598 -0.212528 -0.31029 0.386129
21 1 7.1466398 10.8111 3.67711 0.0674118 0.0560147 -0.0602631
22 1 7.6985202 3.5026 3.70735 -0.190476 0.0229094 0.0193515
23 1 7.25278 10.9348002 7.4203201 -0.106376 0.0369506 -0.15364
24 1 7.1375098 3.51 7.3287101 0.0660374 -0.0088841 -0.126654
25 1 7.31142 7.2521601 10.8474998 -0.07516 0.0367761 0.003347
26 1 7.26545 7.1511102 3.4761601 0.0080713 0.0338391 0.0445982
27 1 7.23522 7.2539902 7.2275701 0.0305108 -0.0020029 -0.0435449
28 2 2.1443801 1.93821 1.6609 -0.0773484 -0.0096686 0.0195794
29 2 1.8292001 1.6441701 5.2655301 -0.0439508 0.0680411 0.0477423
30 2 1.7389 1.88441 9.1987896 0.0093003 0.0041816 -0.0225126
31 2 1.9040102 5.4569602 1.7196601 -0.0128935 -0.0010599 -0.0091722
32 2 1.8941 9.0286798 2.0318 -0.0460158 -0.0084066 -0.0516871
33 2 1.60797 5.2768698 5.6264 0.11694 0.0884472 -0.0440794
34 2 1.70778 8.7205401 5.3392801 0.138729 0.157551 0.145514
35 2 1.82919 5.4412699 9.2835102 0.109136 -0.100785 0.0784868
36 2 1.75571 9.2978602 9.0247698 -0.008162 -9.4291802e-04 0.0563528
37 2 5.3351202 1.75405 1.8393 0.154769 -0.164673 -0.140712
38 2 9.0834904 1.77682 1.8204 0.0156915 -0.0197814 -0.0623215
39 2 5.4478402 1.52694 5.6097999 -0.0079405 0.0343865 -0.0402139
40 2 9.1000204 1.62804 5.5374599 0.0123955 -7.8182302e-06 0.0111017
41 2 5.16781 1.78862 8.8904104 0.0604051 0.0023588 0.0805483
42 2 9.1336498 1.7096 8.9218798 0.0188732 0.0159697 0.0480049
43 2 5.5219102 5.2251902 1.66879 0.095735 0.111344 0.0662794
44 2 9.1597405 5.4721198 2.0152299 0.0383071 -0.0020531 -0.0808493
45 2 5.2391701 8.9882898 1.7467901 0.0748157 0.0667745 0.0421283
46 2 9.2728996 9.2419005 1.7171201 -0.0877955 0.0193892 0.0595589
47 2 5.1476498 5.3343001 5.2876601 0.145975 0.0354667 0.0775345
48 2 9.5783901 5.5155702 5.5249601 -0.165504 -0.0553973 0.0969863
49 2 5.4451499 9.0920696 5.2228899 -0.0318832 -0.0694565 0.0855523
50 2 9.23806 9.0463305 5.7979799 -0.0430065 -0.0491559 -0.109087
51 2 5.4948101 5.5019002 8.8518696 -0.0291324 0.0066715 0.0622212
52 2 8.9401198 5.0385799 9.0907297 0.309612 0.289615 -0.269171
53 2 5.0789099 9.2551804 8.7859097 0.173757 0.0109426 0.129556
54 2 9.0179701 9.3175898 8.8700104 0.066113 -0.124437 0.147541
