ITEM: TIMESTEP
102000
ITEM: NUMBER OF ATOMS
54
ITEM: BOX BOUNDS pp pp pp
-0.0876704 10.9956504
-0.0876704 10.9956504
-0.0876704 10.9956504
ITEM: ATOMS id type x y z fx fy fz
1 1 0.0901218 10.7999001 -0.0672845 -0.0820578 0.032864 -0.064139
2 1 3.7224601 10.8223 10.9672004 -0.0120377 0.0540808 0.0335844
3 1 10.9533006 3.6434701 0.0461305 -0.0252651 -0.0288464 0.0419954
4 1 3.6664 3.5836001 0.184523 0.021488 -0.0099164 -0.124369
5 1 0.102802 -0.0653896 3.3871801 0.0034443 -0.0170327 0.143782
6 1 3.76384 0.149069 3.6561899 -0.126227 -0.136012 0.0739775
7 1 10.9314004 3.7338901 3.9322902 0.0556474 -0.0365537 -0.178944
8 1 3.6012199 3.66079 3.71187 -0.022019 0.0129289 0.133552
9 1 0.0748337 0.176824 7.2431102 -0.0739777 -0.123842 0.0609657
10 1 3.8162899 0.0027823 7.3425899 -0.0686348 -0.103503 -0.0153327
11 1 10.9160004 3.5736699 7.3450198 0.0030741 0.0913379 0.114201
12 1 3.67184 3.3708501 7.4720102 -0.0602469 0.118993 0.0028905
13 1 10.8537998 7.1925402 10.9099998 0.0588742 0.053898 0.0197504
14 1 3.6486299 7.1723199 10.8137999 -0.0138759 0.0127978 0.0405433
15 1 10.7200003 7.3500199 3.5276101 0.0612251 -0.0034637 -0.0524924
16 1 3.4684899 7.4942699 3.4249499 -0.0384879 -3.2507701e-04 0.0438036
17 1 10.9729004 7.2645602 7.0455699 0.0052582 0.0513465 0.104995
18 1 3.53317 7.2476902 7.1223102 0.0292226 -0.0093922 0.0149831
19 1 7.4904099 -0.046268 10.9635 -0.0107386 -0.0141238 0.0112322
20 1 7.2920599 3.5871101 10.6971998 0.0327127 0.139219 0.225411
21 1 7.2543898 0.0128498 3.60582 0.0282986 -0.166114 -0.0491314
22 1 7.3684902 3.4281099 3.31373 -0.101253 0.148292 0.0437299
23 1 7.4070001 0.0115538 7.1891899 0.0971474 -0.109041 0.111947
24 1 7.2348499 3.60323 7.0195599 0.194788 -0.0789773 0.156458
25 1 7.2687302 7.3678002 -0.0261898 0.0204946 -0.0466058 -0.0403569
26 1 7.0926399 7.1993499 3.5093301 0.067418 0.0482862 0.0863523
27 1 7.3330302 7.3853402 7.4727402 -0.012828 -0.0081328 -0.0565337
28 2 1.93708 1.91468 1.86743 -0.0587867 -0.0421518 0.0040909
29 2 1.61553 1.8063901 5.4012399 0.0693176 0.0208474 -0.0178679
30 2 1.4620101 1.81585 9.5605603 0.0951628 0.0039266 -0.0852063
31 2 1.8094701 5.2883301 1.7874201 -0.0359814 0.0514398 0.0198944
32 2 1.6392601 9.0770798 1.7083 0.0342739 -0.034182 -0.0111884
33 2 1.7143901 5.3633099 5.6365199 0.0313977 -0.0114841 -0.0266059
34 2 1.71023 9.4485798 5.6073799 0.0370036 -0.0451694 -0.0459347
35 2 1.73576 5.4711199 9.3152399 -0.0117344 -0.0379279 -0.0467531
36 2 1.76709 9.1199198 9.0242205 8.5333796e-05 -0.0075031 -0.0027444
37 2 5.2835202 1.69977 1.89248 0.093997 0.0527097 -0.0972334
38 2 9.3506003 1.73971 2.1240399 0.0133772 0.0018607 -0.156226
39 2 5.7027898 1.61664 5.6408801 -0.130683 0.0570981 -0.119775
40 2 9.0436602 1.71222 5.1560702 0.0548743 0.0111029 0.112864
41 2 5.7416601 1.76257 9.37603 -0.160299 -0.117834 -0.129855
42 2 9.0369301 1.92891 9.1691999 0.0770435 -0.061413 -0.0565767
43 2 5.1996799 5.4534898 2.1540201 0.0483411 -0.0026082 -0.110684
44 2 9.14326 5.3389101 1.80808 -0.0120068 0.0234219 -0.0138014
45 2 5.5872503 9.08564 1.5839501 -0.0480266 0.0475895 0.0491277
46 2 9.0457001 9.3447104 1.80783 0.0181931 -0.0374803 0.0019244
47 2 5.8032999 5.4353199 5.6202898 -0.160771 0.131347 -0.12663
48 2 9.1839199 5.4489999 5.4712401 -0.0695883 0.0286497 0.0142763
49 2 5.2940798 9.0998497 5.37466 0.0317152 0.009826 0.0043092
50 2 9.2646999 9.2308197 5.3499899 -0.0291778 0.0263742 0.0157364
51 2 5.52839 5.2544499 8.9871598 -0.0300015 0.0511562 0.0100586
52 2 9.0062304 5.47256 9.3703098 0.0391937 0.0150014 -0.0886459
53 2 5.1864801 9.06567 8.9949304 0.0691994 -0.0184001 0.014083
54 2 9.2875404 9.1882401 9.01717 0.0024372 0.0116403 0.00651
