ITEM: TIMESTEP
198000
ITEM: NUMBER OF ATOMS
54
ITEM: BOX BOUNDS pp pp pp
-0.0860729 10.994053
-0.0860729 10.994053
-0.0860729 10.994053
ITEM: ATOMS id type x y z fx fy fz
1 1 0.0028078 0.0529159 0.0341585 -0.0699822 -0.132229 -0.100052
2 1 3.8928102 10.9531002 -0.0296222 -0.100544 0.0767205 -0.0145722
3 1 10.8585998 3.5910399 10.9013996 0.0225291 0.0230302 -0.0063748
4 1 3.5653 3.7040401 10.8280001 -0.0169607 -0.0184799 0.130659
5 1 10.8203001 10.7313996 3.7638099 0.131597 0.0530459 -0.0778878
6 1 3.5959301 10.7784004 3.5451901 0.0215713 0.0308215 0.022276
7 1 10.8551998 3.4713199 3.5195701 0.0181393 0.0066745 -0.0285252
8 1 3.4482 3.6724 3.74468 0.0886914 -0.141385 0.0903766
9 1 10.9429998 10.9232998 7.3601799 0.0407489 0.189106 -0.0255643
10 1 3.7809 0.033773 7.2003899 -0.0277059 -2.8189302e-04 -3.5882902e-04
11 1 -0.027129 3.46858 7.0636201 -0.0311269 0.051383 0.106576
12 1 3.5079899 3.51036 7.4195299 0.0043455 0.0834563 -0.0992853
13 1 0.0180837 7.2630401 0.221037 -0.0110181 -0.0229088 -0.0420057
14 1 3.6943 7.5249501 10.8193999 -0.0216272 -0.126244 0.0788527
15 1 0.155524 7.0918698 3.95062 -0.0763751 0.0648079 -0.0990819
16 1 3.7040601 7.1325402 3.5465701 0.0342958 0.0476603 -0.0093704
17 1 10.8297005 7.4861202 7.4874301 0.191451 -0.236129 -0.0711636
18 1 3.5750599 7.4018898 7.3049998 -0.0320531 -0.0527308 -0.0359046
19 1 7.3880201 10.8726998 10.9687004 0.0590959 0.0333291 -0.0138799
20 1 7.17277 3.64499 10.9407998 0.0812551 -0.0746578 0.0606209
21 1 7.39469 0.0558957 3.5659201 -0.132357 -0.13083 0.0226133
22 1 7.10496 3.5560601 3.7439401 0.1363 0.243135 -0.181752
23 1 7.2146001 10.8977004 7.2596402 0.0776248 0.0529772 0.0082797
24 1 6.96944 3.6597801 7.2192502 0.146417 -0.009389 0.121127
25 1 7.4896798 7.26789 10.7263003 -0.0265258 0.0654027 0.101242
26 1 7.4351301 7.4526701 3.4553499 -0.0079039 -0.0873505 0.0693308
27 1 7.3045602 7.3223 7.19484 -0.0204178 -0.0460874 0.0171279
28 2 1.56722 1.467 1.85092 0.0956907 0.0880292 0.0848548
29 2 1.81831 1.5802701 5.2758498 -0.0206955 0.009097 0.0207554
30 2 1.84754 1.7968201 9.1143999 -0.0420477 -0.0448265 0.0271755
31 2 1.8401 5.0205598 1.93293 -0.0923471 0.114025 -0.114611
32 2 1.88971 8.9080802 1.79457 -0.0022516 0.044874 0.02237
33 2 1.69645 5.5576701 5.7828303 0.0624419 -0.0481424 0.0253652
34 2 1.78257 9.3785296 5.7837601 0.0040249 -0.0630639 -0.092976
35 2 1.77888 5.5066099 9.2651796 -0.0288119 0.0228916 -0.029103
36 2 2.0545399 9.4341698 8.8883496 -0.0497461 -0.0193154 0.097531
37 2 5.2082901 2.1409299 1.7432701 0.0171012 -0.0483397 0.0139976
38 2 8.8579904 1.8314801 1.94705 0.0724292 0.0454009 -0.109862
39 2 5.7769399 1.7914701 5.3105798 -0.198951 -0.16371 0.131142
40 2 9.2202702 1.92817 5.4151101 -0.0690626 -0.0736599 0.0111596
41 2 5.5728598 1.63744 9.3470402 -0.0114217 0.0243374 -0.0572997
42 2 9.0411997 1.78342 9.1142702 0.0014647 -0.0034441 -0.0125285
43 2 5.78302 5.5311198 1.8062101 -0.0527236 0.0047313 -0.0183734
44 2 9.0767002 5.32762 1.77489 0.0057527 0.0125262 8.33778e-04
45 2 5.6740999 9.0118704 1.61366 -0.0295906 0.013586 0.0109384
46 2 9.0606899 9.02701 1.6859501 0.0625959 0.0560844 -0.0248531
47 2 5.2276101 5.50668 5.7084399 0.0074427 -0.0092534 -0.0521156
48 2 9.1792202 5.61233 5.6591802 -0.0045619 -0.0491835 -0.0341155
49 2 5.5300203 8.8611804 5.4807 -0.0370801 0.0704805 -0.0522901
50 2 8.9793702 9.2391997 5.3766499 -0.0094361 -0.0535973 0.0606766
51 2 5.5577002 5.4754801 9.4071503 -0.0638682 0.0328644 -0.0976244
52 2 9.0204096 5.4109903 9.1451101 0.0513444 -0.043495 -0.0553522
53 2 5.4315501 8.9967004 8.9766598 0.0566578 0.0617437 0.0092934
54 2 9.2913399 9.2247105 8.8858004 -0.203816 0.0765138 0.211708
