ITEM: TIMESTEP
126000
ITEM: NUMBER OF ATOMS
54
ITEM: BOX BOUNDS pp pp pp
-0.08985 10.9978314
-0.08985 10.9978314
-0.08985 10.9978314
ITEM: ATOMS id type x y z fx fy fz
1 1 10.7313996 10.7692004 10.9139004 0.339848 0.259379 -0.0239047
2 1 3.59215 -0.0395703 10.7626 -0.0257484 0.0100773 0.11241
3 1 10.8263998 3.6477499 0.194739 0.16471 0.0855674 -0.180708
4 1 3.5063501 3.6696801 10.8941002 -0.005808 -0.0115739 0.0027405
5 1 -0.0516231 10.9693004 3.5926001 -0.0093308 -0.0228844 0.0084815
6 1 3.72052 10.9216996 3.5566499 -0.063666 -0.0086276 -0.0232893
7 1 10.7771998 3.6050101 3.7572 0.154396 -0.0680087 -0.0436872
8 1 3.6090901 3.3539 3.40152 -0.0292683 0.121582 0.0308041
9 1 -0.0184708 0.193707 7.4276099 -0.0902579 -0.0351277 -0.0849689
10 1 3.5067799 10.8915006 7.3108101 0.0218887 0.0326902 -0.0641938
11 1 0.0771135 3.9182502 7.0780001 -0.119998 -0.0764262 0.253709
12 1 3.5866201 3.43218 7.2217202 0.0111969 0.024507 -0.0041735
13 1 0.283917 7.3186102 0.146683 -0.0992578 -0.084835 -0.0910596
14 1 3.77981 7.3084102 0.120321 -0.0211073 -0.0235524 -0.128911
15 1 -0.0133378 7.2911301 3.6160801 1.1797e-04 0.0244022 0.0583147
16 1 3.81827 7.3340101 3.7000501 -0.0918854 -0.0830673 -0.021039
17 1 10.9227 7.75206 7.2618299 0.0588802 -0.173387 0.0696149
18 1 3.3689599 7.2114101 7.2760902 0.0833539 -0.0108312 0.0290613
19 1 7.4207301 10.8794004 10.8450004 -0.195226 0.109247 -0.0073071
20 1 7.2767801 3.5736201 -0.0114418 -0.0046676 -9.6667805e-04 -0.0340634
21 1 7.3092098 10.9733 3.3557601 0.0629484 0.0429855 0.039844
22 1 7.4109502 3.8540202 3.6126101 -0.219293 -0.104276 0.126401
23 1 7.09514 -0.0459451 7.1208901 -0.00338 0.0402868 0.0524427
24 1 7.39113 3.97292 7.4657102 -0.04211 -0.137946 -0.199937
25 1 7.4460902 7.4137602 10.8578998 0.0044348 -0.0784725 0.089848
26 1 7.3463302 7.5330401 3.68499 0.0427214 -0.133187 -0.0989574
27 1 7.1340699 7.5543299 7.3575602 -0.073129 -0.0315943 -0.0559277
28 2 1.72637 1.60136 1.82224 -0.0095602 0.0109971 -0.038767
29 2 1.72793 1.62701 5.3558002 0.0156335 0.0260762 0.0018124
30 2 1.5156601 1.80872 9.1970596 0.0565039 0.0582762 0.0579342
31 2 1.8319201 5.5056701 1.96306 0.0207023 -0.0348558 -0.0035637
32 2 1.96426 9.34482 1.62131 -0.0211256 -0.0113044 0.0292724
33 2 1.66829 5.3877001 5.3445301 0.114791 0.082308 -0.0826552
34 2 1.81628 9.2062502 5.6304202 -0.019523 0.0054131 -0.0887787
35 2 1.76437 5.5609999 9.1245003 -0.0222003 -0.026509 0.025066
36 2 1.65677 8.9764204 9.2216196 0.0572616 0.0635622 6.4129901e-04
37 2 5.7442098 1.83419 1.87137 -0.0519769 -5.4702502e-04 -0.0437384
38 2 9.30476 1.90599 1.6848101 -0.117451 -0.147398 0.0972776
39 2 5.2577601 1.7460701 5.2410102 0.0638003 -0.0086607 0.0503698
40 2 9.02528 1.3022 5.4914799 0.0468833 0.0866367 -0.0587726
41 2 5.31073 1.78256 9.0833502 0.0446318 0.0030338 0.0010005
42 2 9.0326996 2.11445 8.8551904 0.0596224 -0.0750685 0.0653828
43 2 5.5378599 5.43855 1.59699 0.0071314 -0.0025231 0.0469509
44 2 9.1677704 5.3405399 2.0603299 0.0443488 0.150656 -0.124107
45 2 5.35427 9.1600905 1.6332801 0.0728151 0.0501487 0.0305792
46 2 9.4789601 9.1199303 1.59445 -0.14552 -0.114289 0.163632
47 2 5.3484602 5.34443 5.6626101 0.0104368 0.0262375 -0.0371262
48 2 9.1989203 5.7926603 5.6426902 -0.019138 -0.0358181 -0.050278
49 2 5.4959798 9.1827803 5.2189102 -0.0055167 0.0456798 0.08708
50 2 9.0426502 8.9369098 5.5822501 -0.0264309 0.159239 -0.0854244
51 2 5.5869003 5.2877498 9.1719103 -0.100115 0.0873479 0.0617915
52 2 9.0071201 5.8680502 8.7844897 0.132257 0.0057454 0.118517
53 2 5.3116698 9.2682305 9.0444603 0.0199957 -0.0359262 0.0254162
54 2 9.2191601 9.2378798 9.0908098 -0.0786197 -0.0344163 -0.0610584
