ITEM: TIMESTEP
118000
ITEM: NUMBER OF ATOMS
54
ITEM: BOX BOUNDS pp pp pp
-0.0682504 10.9762306
-0.0682504 10.9762306
-0.0682504 10.9762306
ITEM: ATOMS id type x y z fx fy fz
1 1 10.8866998 10.8850002 0.0531098 0.0293171 -0.0568198 -0.0506428
2 1 3.7321601 -0.036598 -0.0210222 -0.0786773 -0.0508445 -0.0290475
3 1 0.0134157 3.3271999 -0.0089699 -0.0278211 0.15356 -0.100384
4 1 3.65574 3.5158801 10.8430996 0.0534816 0.008105 0.178494
5 1 10.8732996 10.9301004 3.64097 0.0324736 0.0277707 -9.3565006e-04
6 1 3.3954001 0.240458 3.5509901 0.0972011 -0.0909454 -0.0439111
7 1 -0.0245746 3.67557 3.4444399 0.0312356 -0.047804 0.137568
8 1 3.8125601 3.8344701 3.4841299 -0.0229222 -0.0956823 0.114826
9 1 0.0582832 -0.008453 7.3071098 -0.225976 -0.0263923 0.0142821
10 1 3.36234 10.8409996 7.0391598 0.299138 -0.101156 0.0487852
11 1 0.136949 3.5459099 7.3798599 -0.0451871 0.0672865 -0.0406402
12 1 3.65344 3.3899801 7.4642101 0.12802 0.0805305 -0.195882
13 1 0.130141 7.2101002 0.0148684 -0.0116966 -0.0232389 0.0191494
14 1 3.75102 7.3568201 10.8874998 -0.287852 -0.112414 -0.113319
15 1 10.7915001 7.2323198 3.6517 0.0634686 0.0212592 0.0051023
16 1 3.5360701 7.5204301 3.5629101 -0.0070644 -0.0024683 0.0145436
17 1 0.167993 7.38061 7.3619199 -0.188392 -0.163018 -0.0758922
18 1 3.7202699 7.1118398 7.0964298 -0.0397624 0.0466798 0.0996975
19 1 7.3181601 0.150626 -0.0248174 -2.5650399e-04 -0.100023 0.0106123
20 1 7.4127402 3.6743 10.9455996 -0.018205 -0.055103 0.195839
21 1 7.4302702 0.0680796 3.6679499 -0.0958807 -0.0216681 -0.0207614
22 1 7.4664998 3.6312399 3.9540902 0.0544512 0.103851 -0.138833
23 1 7.3689299 0.11265 7.3660598 -0.0113732 -0.0116367 -0.0274338
24 1 7.5108199 3.84211 7.5658999 0.0250632 -0.0886117 -0.181469
25 1 7.02494 7.1802902 0.100595 0.335808 0.0220049 -0.161506
26 1 7.2171602 7.36695 3.66586 -0.0821123 -0.0605573 0.0094681
27 1 7.3291102 7.468 7.2244702 -0.0036342 0.0011974 0.0709311
28 2 1.55403 1.76924 1.7722501 0.0860769 -0.0538368 0.032732
29 2 1.9547 1.7613 5.48771 -0.101675 0.107587 -0.0124239
30 2 2.0005701 1.52486 8.8807802 -0.0681057 0.0233885 0.148269
31 2 1.99913 5.4148002 2.0284901 -0.0872224 0.0708528 -0.112666
32 2 1.81882 9.2339001 1.81151 -0.021096 -6.8663102e-04 -0.018973
33 2 1.64705 5.50381 5.4061198 0.0223486 -0.0181837 -0.0032744
34 2 1.49909 9.1746798 5.4031701 0.0415065 -0.026236 -0.043322
35 2 1.85097 5.0517302 9.2406597 -0.0341087 0.116358 -0.014952
36 2 1.7659 9.0453596 8.8451596 0.115229 0.0874207 0.1566
37 2 5.3470101 1.8120001 1.8881 0.0532406 0.0056693 -0.0320596
38 2 9.0890198 1.8284101 1.7962001 0.008137 0.0057551 0.0163429
39 2 5.6089401 2.0525501 5.2706299 -0.110669 -0.107833 0.107666
40 2 9.3922196 1.95559 5.6526599 -0.0316612 -0.0300626 -0.0334539
41 2 5.3976102 1.5792201 9.1823397 0.0244942 0.0345011 -0.0320192
42 2 9.2349997 1.96566 9.1633797 -0.0073471 -0.0648776 -0.0113033
43 2 5.3909898 5.5895901 1.8031401 -0.0048011 -0.04523 0.0200816
44 2 9.0933199 5.3635802 1.94794 -0.0269382 0.0222561 -0.0440014
45 2 5.33674 8.8954296 1.5363601 0.0324565 0.191925 0.16226
46 2 8.9043504 8.8290005 1.8116601 0.0547566 0.0735589 -0.0426422
47 2 5.3467398 5.5107398 5.3976498 0.0791548 -0.0346233 -0.0202042
48 2 9.0059996 5.57369 5.62988 0.0642156 0.0083651 -0.0147788
49 2 5.41043 9.41889 5.1875601 -0.0036018 -0.0150457 0.0262184
50 2 9.0194597 9.06563 5.2947102 0.0366588 0.0424744 0.0513318
51 2 5.69769 5.2164998 9.1898499 -0.146302 0.114641 0.0191876
52 2 9.1695995 5.5911598 9.4715204 0.0264199 1.80807e-04 -0.0370282
53 2 5.3579602 9.0636396 8.9664202 0.0120677 0.0317493 7.50562e-04
54 2 9.2155104 8.8617402 9.3156605 -0.016078 0.0360707 -0.0069772
