ITEM: TIMESTEP
146000
ITEM: NUMBER OF ATOMS
54
ITEM: BOX BOUNDS pp pp pp
-0.0499794 10.9579592
-0.0499794 10.9579592
-0.0499794 10.9579592
ITEM: ATOMS id type x y z fx fy fz
1 1 0.123365 10.6064997 0.119063 0.0246718 0.194524 -0.13921
2 1 3.66763 0.109458 0.0023198 -0.0867948 -0.0304176 -0.22249
3 1 0.0239109 3.3762601 0.14763 -0.0128079 0.0554938 -0.0938871
4 1 3.6499 3.7503 0.123359 0.0083022 -0.175082 -0.0412077
5 1 -0.0146855 10.8822002 3.6572399 0.0857904 0.163615 0.0232342
6 1 3.73276 -0.0329275 3.42449 -0.198976 -0.0902141 0.22493
7 1 10.797 3.4997301 3.5459299 0.0647961 0.0379655 0.155549
8 1 3.56652 3.5487199 3.75806 -0.0051853 0.0588599 -0.0044078
9 1 10.9276 0.0633613 7.4182401 0.0985631 -0.128062 -0.0239523
10 1 3.7618599 10.6992998 7.1813302 -0.0305962 0.204462 -0.0124855
11 1 10.9160004 3.4749899 7.3512602 -6.0991197e-04 0.18589 -0.0582709
12 1 3.52984 3.54578 7.2702999 0.021663 0.0670073 0.0412203
13 1 10.9266996 7.1717601 10.6724997 0.116111 -0.0682021 0.199113
14 1 3.81267 7.0539298 10.9502002 -0.0475369 0.23664 0.0136961
15 1 10.8925 7.43012 3.6242299 -0.0729335 -0.170515 -0.0090837
16 1 3.64973 7.22366 3.81743 -0.0870739 0.0091936 -0.122841
17 1 10.7114001 7.1942 7.32056 0.109561 0.0699033 -0.137544
18 1 3.3441601 7.3709602 7.2367101 0.105431 -0.207053 0.0622603
19 1 7.26227 0.221155 0.0294606 0.0406039 -0.106985 -0.0505327
20 1 7.2212901 3.6593201 10.8367996 0.0588564 0.0650855 0.230946
21 1 7.13729 10.8915006 3.5571001 0.0920336 0.131428 0.0569555
22 1 7.2005 3.5651801 3.6697901 0.0116497 0.018448 -0.0140607
23 1 7.4415303 0.0763067 7.4210801 -0.0917481 -0.0842224 0.0109988
24 1 7.2955299 3.58653 7.5475402 0.0489361 0.0737867 -0.257336
25 1 7.4291501 7.2456002 10.7065001 -0.0875324 0.041474 0.0999063
26 1 7.1156101 7.5162201 3.53016 0.116735 -0.151174 -0.0759574
27 1 7.2757201 7.26752 7.1398101 -0.133897 0.073915 0.0560472
28 2 2.0395601 1.92734 1.82206 -0.0911395 -0.0546845 0.0146399
29 2 1.7031501 1.91674 5.57583 5.0780201e-04 -0.0635913 -0.0460928
30 2 1.86558 2.0413401 9.1395998 -3.0825701e-04 -0.083391 0.0399399
31 2 1.8262 5.34687 1.82565 -0.0313305 0.0398732 0.0287533
32 2 1.65114 8.8448802 1.81733 0.105275 -0.0056982 -0.0025164
33 2 1.69075 5.5294299 5.5388699 -0.0248753 -0.0393437 -0.0203057
34 2 1.46789 8.9696704 5.5211602 0.0501188 0.0559776 0.020201
35 2 1.8825002 5.31074 9.2746897 -0.034388 0.0147496 -0.0402931
36 2 1.83836 9.0948401 8.9120198 -0.0621603 0.0453545 0.0932753
37 2 5.1715999 1.77025 1.8283201 0.167391 0.117263 -0.0225875
38 2 9.0288296 1.7848001 1.86174 -2.4003599e-04 -0.013324 -0.0023397
39 2 5.4646201 2.0141599 5.6981302 0.0210808 -0.0717093 -0.0450565
40 2 8.9428302 1.60755 5.4426499 0.0417071 0.0800038 -0.0285591
41 2 5.4825001 1.96568 9.0808296 -0.0723676 -0.0897245 0.038858
42 2 9.4334803 1.87236 9.2072802 -0.109329 -0.0547422 0.0584205
43 2 5.4324498 5.4530301 1.94226 0.0211583 -0.0093638 -0.0013562
44 2 9.2737198 5.3724299 1.8128801 -0.0416809 0.0339228 -0.0256147
45 2 5.3306298 9.4124603 1.5799001 0.0761011 -0.133633 0.0074748
46 2 9.2866898 9.3978901 1.85023 -0.144954 -0.107619 0.0176072
47 2 5.5232401 5.41223 5.3945198 -0.0165367 -2.90378e-04 0.0339111
48 2 8.9163504 5.5617199 5.5532999 0.0513861 -0.0820175 -0.0842911
49 2 5.4659901 9.0003004 5.40765 -0.0140592 0.0493779 0.0338596
50 2 9.1470299 9.5123396 5.3743601 -0.0478213 -0.114508 0.0570802
51 2 5.23454 5.2056098 9.0692101 0.0439763 0.0689721 -0.0264606
52 2 9.1261997 5.4965301 9.0311699 -0.0262101 -0.089568 0.0165573
53 2 5.4966102 9.1341696 9.0346003 0.0144411 -0.0163089 0.0295419
54 2 9.2026196 9.1476698 9.2870102 -0.0237555 0.0482573 -0.0562369
