ITEM: TIMESTEP
190000
ITEM: NUMBER OF ATOMS
54
ITEM: BOX BOUNDS pp pp pp
-0.0919704 10.9999504
-0.0919704 10.9999504
-0.0919704 10.9999504
ITEM: ATOMS id type x y z fx fy fz
1 1 -0.0768433 10.8099003 10.988 0.055102 0.109447 0.0224734
2 1 3.88836 10.8378001 -0.0458383 -0.128507 0.0435666 -0.0554417
3 1 10.8707 3.4058001 0.198292 0.0548016 0.0279696 -0.0478334
4 1 3.7123001 3.46174 10.7806998 0.0014237 0.0344486 0.127971
5 1 0.0826481 0.0997921 3.7555599 -0.0390678 0.0193158 -0.0867258
6 1 3.8265801 10.9602004 3.4897101 -0.0753051 0.0024519 0.0433992
7 1 10.6931 3.8284199 3.8202501 0.138563 -0.0525926 -0.123755
8 1 3.47666 3.5100501 3.5583601 0.0052163 0.0379144 -0.0343436
9 1 10.9511004 0.103614 7.4382501 0.0207115 -0.113042 -0.0868718
10 1 3.4537699 10.9567004 7.24296 0.0535652 0.144847 0.0471831
11 1 0.0081617 3.5755601 7.25809 -0.0022962 0.0192723 0.0926394
12 1 3.8283601 3.5922501 7.2241302 -0.0819259 0.0284664 -0.0392773
13 1 10.8359003 7.1719799 -0.0607755 -0.0022498 -0.0436831 -0.0154221
14 1 3.28777 7.2048502 10.9439002 0.0955918 0.0447298 0.0579224
15 1 10.9645004 7.4938402 3.4586101 -0.0370774 -0.0167262 0.0986752
16 1 3.38344 7.2595701 3.63744 0.118872 0.0124171 0.045536
17 1 0.0031476 7.2905202 7.2438002 -0.0462548 -0.0385128 -0.0047435
18 1 3.4601701 7.6588602 7.2557702 0.0613513 -0.216411 0.023274
19 1 7.3407898 -0.0624364 0.116797 0.100225 -0.0416801 -0.193437
20 1 7.3571601 3.67431 10.8617002 -0.0600321 -0.0248231 0.0856611
21 1 7.2864499 10.7370005 3.49316 0.0582306 0.131356 0.110344
22 1 7.2034798 3.7733701 3.4515801 -0.0945226 -0.0378872 0.125946
23 1 7.1022201 10.9441996 7.18431 0.0517677 0.0770977 0.0147117
24 1 7.2806301 3.6509199 7.4236799 0.0782974 -0.0100492 -0.108572
25 1 7.16576 7.3171802 -0.0814287 0.01311 0.0011726 -0.072606
26 1 7.3580699 7.39745 3.44588 -0.0905195 -0.0282666 0.14144
27 1 7.3733802 7.4493199 7.25314 -0.0055587 -0.0680659 0.0434535
28 2 1.77796 1.6878901 1.66951 0.0232388 -0.0172188 0.0071451
29 2 2.0369501 1.68549 5.4770298 -0.0499145 0.0379324 -0.0121752
30 2 1.87585 1.67426 9.2948103 -0.0310114 -0.0154528 -0.0232146
31 2 1.65678 5.6275802 1.9394 -0.0257982 -0.076622 -0.0452278
32 2 1.84834 9.19905 1.93458 -0.0119591 0.024374 -0.0488474
33 2 1.7180801 5.38621 5.6030503 0.0341423 0.015326 -0.0350856
34 2 1.43865 9.3499804 5.5190702 0.0596789 -0.0489909 0.0120034
35 2 2.01529 5.2944999 9.1832104 -0.0837256 -0.0119588 -0.066766
36 2 1.6298501 9.2049904 9.2653303 0.0500279 -0.0237594 -0.0383635
37 2 5.809 1.75246 1.72183 -0.137066 0.0359545 0.0235881
38 2 8.8392802 1.92441 1.93579 0.101711 -0.0459335 -0.0566112
39 2 5.5457602 1.7346701 5.2152701 0.0010258 0.0107157 0.0207477
40 2 8.9683304 1.6618201 4.9956498 -0.022707 0.0106117 0.108733
41 2 5.3963299 1.73285 9.0791502 0.0401798 -0.0406494 -0.0084877
42 2 9.0918503 1.58208 8.9996796 -0.0596311 0.0568984 0.0714499
43 2 5.4140902 5.55545 1.87993 -0.0420368 -1.83171e-04 -0.0375776
44 2 8.8296204 5.5953598 1.89749 0.134647 -0.0552506 -0.118572
45 2 5.3944001 8.94339 1.66315 -0.011849 0.0028313 0.0357466
46 2 9.4324198 9.38307 1.77183 -0.0793905 -0.0456343 0.0393643
47 2 5.7214899 5.59024 5.5887499 -0.046709 -0.0084694 -0.0364284
48 2 9.0910196 5.5797901 5.3531399 -0.0511857 0.0602961 0.0730333
49 2 5.38973 9.0786696 5.4521499 0.0091146 0.0049855 -0.0326203
50 2 9.1546202 9.0775099 5.5307899 0.0196148 0.0403241 -0.0307394
51 2 5.29387 5.8372202 8.9968004 0.0182545 -0.0359421 0.0047442
52 2 9.2815704 5.17451 9.2133703 0.0236516 0.0513388 -0.0271999
53 2 5.52354 9.2101298 9.1110001 -0.0061711 -0.0152241 0.0015428
54 2 9.5265303 8.95391 9.0608196 -0.0996437 0.0469694 0.0082179
