ITEM: TIMESTEP
138000
ITEM: NUMBER OF ATOMS
54
ITEM: BOX BOUNDS pp pp pp
-0.0848287 10.9928094
-0.0848287 10.9928094
-0.0848287 10.9928094
ITEM: ATOMS id type x y z fx fy fz
1 1 10.9048004 10.9863006 10.8515998 0.0300462 0.0284378 0.0704142
2 1 3.7526701 0.0330022 0.0167471 -0.110413 -0.10339 -0.165287
3 1 10.8469 3.53002 10.9027996 0.107167 0.0190213 0.0477048
4 1 3.6562 3.5420101 -0.0691467 -0.136186 0.106408 0.037894
5 1 -0.0289928 10.8086005 3.5055201 0.0510787 0.0482877 -0.0598758
6 1 3.88222 10.9684 3.3931799 -0.134348 -0.126113 0.218007
7 1 10.8584996 3.5422499 3.5643201 -0.0056038 0.0242842 -0.0180587
8 1 3.46873 3.4841399 3.8557602 0.0675971 -0.0687566 -0.228924
9 1 10.9105998 10.8967 7.18402 -0.0212927 -0.0525949 0.009546
10 1 3.38094 0.0723947 7.2378602 0.0774528 -0.0216359 -0.0177389
11 1 10.8254996 3.40977 7.2278199 0.130813 0.0453543 0.0373362
12 1 3.7279201 3.8009701 7.1963301 -0.0248701 -0.0630149 0.137397
13 1 0.282014 7.48384 0.0295868 -0.245474 -0.120918 -0.0475401
14 1 3.7003401 7.2974901 10.8493004 0.104215 -0.0033331 0.0633415
15 1 -0.0197785 7.2571998 3.7923601 0.0284534 -0.080345 -0.107693
16 1 3.7688101 7.1403599 3.59602 -0.0882567 0.0551021 0.044041
17 1 0.0137266 7.0316501 7.2947202 0.0095267 0.029792 0.0559987
18 1 3.7335899 7.3208499 7.3329501 -0.0016222 0.0549289 -0.0422142
19 1 7.2940202 0.13325 0.165552 -0.0309997 -0.0829147 -0.0900733
20 1 7.1125798 3.5159099 0.148436 0.0040598 0.150582 -0.0864734
21 1 7.4850998 10.8928004 3.5443299 -0.0660496 0.0702038 0.143374
22 1 7.06704 3.7291701 3.7033801 0.0816988 -0.169724 0.005768
23 1 7.3220902 0.0746209 7.3751001 -0.0376745 0.0170455 0.006225
24 1 7.3719201 3.8185001 7.5688601 0.0089343 -0.141005 -0.104349
25 1 7.3799801 7.12041 10.9230004 -0.0489801 0.103513 -0.111485
26 1 7.33216 7.1159301 3.3831101 -0.0607934 0.356492 0.3029
27 1 7.4456802 7.3608699 7.0721102 0.0130006 0.0892823 0.0646365
28 2 1.7472101 1.7195801 1.8157001 -0.0074733 0.0032428 -0.0150065
29 2 1.46415 1.60646 5.2392202 0.0383968 0.0125702 0.0374929
30 2 1.6556701 1.53823 9.1391201 2.3819001e-04 0.0621778 0.0115349
31 2 1.7088701 5.3527599 1.48813 0.0214942 -0.0201067 0.0648601
32 2 1.95698 9.0029202 1.7048 0.0596663 0.0790404 0.0833966
33 2 1.7213201 5.0764899 5.3243499 -0.0914389 0.124396 0.082727
34 2 1.91107 9.0476103 5.3129501 0.0086102 0.0165983 0.0195332
35 2 1.91481 5.4635101 9.2652397 -0.0238408 -0.0236037 -0.0329703
36 2 1.7770701 9.1933098 9.2869597 0.0393602 0.0295195 -0.0659899
37 2 5.1831899 1.78518 1.82861 0.130417 0.123203 -0.0159161
38 2 9.0255804 2.1653099 1.7157901 0.0361262 -0.111225 0.0762479
39 2 5.5416198 1.67439 5.2575498 -0.007477 -2.4393199e-04 0.0490479
40 2 9.0155602 1.92662 5.54667 -0.043181 -0.0491499 -0.0558903
41 2 5.2262902 1.96926 9.2007904 0.0707237 -0.0655873 -0.0628062
42 2 9.06143 1.79045 9.2168198 -0.0119507 -0.009291 -0.0050884
43 2 5.5257602 5.5407501 1.9855 -0.0979384 -0.113327 -0.168444
44 2 8.9789496 5.7945199 1.7579 0.277227 -0.23678 -0.116753
45 2 5.4492102 9.0518703 1.6660301 0.0319855 -0.0117696 -0.0061627
46 2 9.0149298 9.2019501 1.7837301 0.0587902 -0.0567786 -0.057471
47 2 5.7577601 5.4601403 5.6208 -0.0947881 0.0291734 -0.0149996
48 2 8.9970704 5.37957 5.3652101 0.0530781 -3.44715e-04 0.0080916
49 2 5.5001602 9.4833002 5.6963701 -0.0130931 -0.0481301 -0.0388414
50 2 9.2912998 9.1057701 5.1736898 -0.0563519 -0.0045292 0.0776853
51 2 5.6245899 5.2957001 9.1756802 -0.0986932 0.0949 0.066346
52 2 9.2536497 5.25909 9.2776499 -0.012772 0.0904882 -0.0211646
53 2 5.4619599 9.3596001 9.1395502 -0.0026039 -0.0123116 0.0031963
54 2 8.7858401 9.4371701 9.4696598 0.0340093 -0.0671208 -0.0675273
