ITEM: TIMESTEP
136000
ITEM: NUMBER OF ATOMS
54
ITEM: BOX BOUNDS pp pp pp
-0.0835083 10.9914886
-0.0835083 10.9914886
-0.0835083 10.9914886
ITEM: ATOMS id type x y z fx fy fz
1 1 10.9533006 10.7505999 10.8999004 0.185555 0.165367 0.304086
2 1 3.53594 10.9673996 0.103944 0.0243444 0.0110816 -0.191796
3 1 10.9657002 3.4756401 10.797 0.0714021 0.104627 -0.0277388
4 1 3.5174001 3.76982 10.8093004 0.0331002 -0.0872312 0.0199982
5 1 0.0505577 10.9286004 3.6242001 -0.116851 0.0032527 -0.0347157
6 1 3.4807999 10.8964996 3.4500799 0.163261 0.105978 0.230361
7 1 -0.0469332 3.6327901 3.5118101 -0.0047611 -0.102491 0.0150824
8 1 3.5485201 3.6977999 3.78495 0.0696063 -0.0703368 -0.162859
9 1 0.128477 -0.0535317 7.6143298 0.0546023 0.10636 -0.332379
10 1 3.6812899 -0.0421477 7.3113999 0.0026338 -0.0453112 -0.0067168
11 1 0.07718 3.50931 7.2821102 -0.0358217 0.0525797 0.0044361
12 1 3.6656201 3.4284899 7.0854001 -0.0029859 0.0605966 0.194282
13 1 10.7806998 7.3292899 0.173056 0.147265 -0.103293 -0.151295
14 1 3.62215 7.2109699 -0.0775405 -0.0482233 0.10931 -0.0305407
15 1 10.8428002 6.99578 3.5840299 -0.0241921 0.161487 0.0931236
16 1 3.2975099 7.2265301 3.7888801 0.121672 -0.0132181 0.0145743
17 1 -0.0153218 7.2448902 7.1491299 -0.137961 -0.0342503 0.133588
18 1 3.4712999 7.3869701 7.3140302 0.045773 -0.0534147 -0.0204405
19 1 7.5440002 -0.0685698 10.9178 -0.131623 -0.0748084 0.0309804
20 1 7.3453202 3.4070201 0.0354047 -0.0666017 0.14937 -0.0502516
21 1 7.23876 10.8537998 3.6733899 0.0045573 0.0969393 -0.0696971
22 1 7.5279699 3.5093 3.6450401 -0.0755679 0.006601 -0.0071914
23 1 7.3094101 0.262514 7.1838598 0.0561639 -0.136569 0.0492409
24 1 7.38237 3.7452901 7.19168 -0.0536888 -0.0758007 0.0998958
25 1 7.3104301 7.4015198 0.0515593 -0.0248457 -0.0877818 -0.0981354
26 1 7.0762701 7.4161301 3.6361301 0.0286874 -0.139809 0.0611807
27 1 7.2404299 7.2937102 7.5071101 0.0476171 0.0948044 -0.0927048
28 2 1.6889401 1.96854 1.77791 0.0334838 -0.0429111 -0.024482
29 2 1.80027 1.69119 5.3077798 0.0045004 -0.0041224 0.0256659
30 2 2.0627201 1.99909 9.0785103 -0.0656397 -0.0971863 0.0023866
31 2 1.8693 5.3297 1.9613 -0.0478083 0.029145 -0.0756173
32 2 2.0763299 9.0148802 1.94995 -0.155841 -0.0458051 -0.137753
33 2 1.61288 5.3239899 5.5083699 0.0299268 0.012338 -0.0111083
34 2 1.3910101 8.96941 5.4338999 0.0933633 0.0775732 -0.0425546
35 2 1.73095 5.5065899 8.9649096 -0.0017476 -0.0102673 0.0299709
36 2 1.7782001 9.0430098 8.9615498 0.0133432 0.003607 0.094565
37 2 5.1283598 1.86118 1.74807 0.0384226 0.011617 0.0145606
38 2 9.3864603 1.92136 1.4360401 -0.0308964 -0.119898 0.138065
39 2 5.4852 1.73367 5.4688602 -0.0163441 0.0173216 -0.0708666
40 2 9.6075802 1.8384 5.4981399 -0.0807308 -0.0517561 -0.0221164
41 2 5.6570802 1.78393 9.2771797 -0.0512217 -0.0047796 -0.0276776
42 2 9.2068996 1.5600801 9.0902596 0.007785 0.0793507 0.0011776
43 2 5.0272598 5.32476 1.6460201 0.119413 0.0191039 0.0778718
44 2 8.9845 5.5967398 1.81391 -0.035057 -0.0731342 -0.0089212
45 2 5.5696602 9.0011301 1.63537 -0.0867926 0.08851 0.0361926
46 2 9.1571198 9.0900402 1.85004 -0.0219684 0.0448921 0.0420408
47 2 5.1862102 5.5194602 5.8241501 0.0718442 0.0341951 -0.130842
48 2 8.9932204 5.57441 5.7726403 0.0667912 0.0341384 -0.114761
49 2 5.2905002 9.1035605 5.4032202 -0.0052092 0.0140882 0.018623
50 2 9.1654501 9.3720799 5.5109401 0.0021417 -0.0304681 0.0173606
51 2 5.3963099 5.4407201 8.85359 -0.0272833 -0.0284558 0.101709
52 2 9.02458 5.5212899 9.1042004 0.0409923 -0.020064 0.0431156
53 2 5.36658 9.0165901 8.8816004 4.4067102e-04 0.0679203 0.0869237
54 2 9.6020003 9.25739 9.0268497 -0.229025 -0.208992 -0.0378945
