ITEM: TIMESTEP
144000
ITEM: NUMBER OF ATOMS
54
ITEM: BOX BOUNDS pp pp pp
-0.0732007 10.9811812
-0.0732007 10.9811812
-0.0732007 10.9811812
ITEM: ATOMS id type x y z fx fy fz
1 1 10.9792004 10.9610996 10.9785996 0.0604242 0.0253799 0.0539177
2 1 3.72767 10.9593 -0.0069719 -0.0450954 -0.0662822 -0.0211986
3 1 -0.0293077 3.7641101 10.8098002 0.0168863 -0.131843 0.115159
4 1 3.78472 3.5637901 10.8161001 -0.121235 0.0274275 -0.0054425
5 1 10.6912003 0.0790342 3.4644201 0.0495744 0.0160541 0.0714279
6 1 3.46329 -0.0420402 3.6180699 0.0087249 -0.0057724 0.0419505
7 1 0.0016903 3.69172 3.3675101 -0.0113224 0.0515594 0.0412993
8 1 3.7839601 3.74017 3.34864 -0.10082 -0.0392157 0.0982895
9 1 10.8853998 10.8598004 7.51052 -0.0072084 0.038059 -0.138152
10 1 3.86729 10.974 7.5033398 -0.243056 0.052139 -0.156754
11 1 10.9476996 3.70906 7.2627301 0.0662023 -0.0079795 -0.0391456
12 1 3.5859399 3.63689 7.29532 0.0186272 6.7996102e-04 -0.0686995
13 1 10.9230004 7.3173399 0.027498 0.0084934 -0.0195184 0.0889863
14 1 3.48998 7.2217498 0.043097 0.049096 0.0334762 -0.130245
15 1 -0.0308797 7.6749001 3.84484 -0.0201271 -0.0939571 -0.0019063
16 1 3.7404001 7.1890898 3.5430801 -0.0880908 0.0508447 0.155599
17 1 -0.0680072 7.40625 7.4980502 -0.0017189 -0.152822 -0.126813
18 1 3.5497899 7.3464499 7.2839298 0.0670016 -0.0818872 0.049372
19 1 7.4554401 10.9378996 10.8978004 -0.0816328 0.0808461 0.0169879
20 1 7.1827898 3.7748001 10.8563996 0.0881255 -0.0890748 0.0627583
21 1 7.0232201 10.9344998 3.5746 0.0368624 -0.0344575 0.0025206
22 1 7.23839 3.4923301 3.64747 0.046451 0.0103816 -0.147664
23 1 7.2343502 0.0882508 7.3547702 0.10425 -0.250126 -0.0595468
24 1 7.4219198 3.3322401 7.0833402 -0.142128 0.219639 0.15581
25 1 7.2090998 7.44729 -0.0454849 -0.0236945 -0.0564735 -0.0202383
26 1 7.2680102 7.1381002 3.99044 0.210893 0.232656 -0.336789
27 1 7.4807902 7.0509 7.39675 0.0130381 0.0844081 0.0502435
28 2 2.10656 1.95829 1.74509 -0.0875982 -0.0345966 -0.0373887
29 2 1.77459 1.912 5.1897898 -0.0089989 0.0075254 0.0335995
30 2 1.6184501 1.5500601 8.94234 0.0610074 0.0685453 0.0475591
31 2 1.76923 5.76088 1.8270101 -0.0576311 -0.078453 0.0300883
32 2 1.83559 9.1788597 2.03386 -0.0251849 -0.0113048 -0.0679628
33 2 1.9095402 5.6199999 5.3906798 -0.0330736 -0.0323435 0.0017791
34 2 2.0473399 9.20366 5.6705299 -0.0664873 0.0398183 -0.0373617
35 2 1.64546 5.4060001 9.1227598 0.0663802 0.0452484 -0.0229124
36 2 1.6159001 8.8410102 9.2782698 0.0977334 0.106741 0.0276785
37 2 5.31176 1.69441 1.64415 0.0823768 0.0250225 0.0317272
38 2 9.02742 1.90459 1.81128 -0.0116964 0.0036493 -0.0537
39 2 5.2829499 1.86876 5.1263199 -0.0072034 -0.0308266 0.0864154
40 2 9.3661699 1.90696 5.5464902 0.0198484 -0.0914535 -0.0702038
41 2 5.4824701 1.76515 9.0228596 0.0247522 0.0599259 0.0675043
42 2 9.1245298 1.7732101 9.1624203 0.0142875 0.0169224 0.0062692
43 2 5.41992 5.4667001 1.69865 0.0621563 0.0149653 -0.0307596
44 2 8.9671898 5.7093802 1.56782 0.0088107 -0.0589365 0.0671245
45 2 5.38097 8.7285204 1.86154 0.057837 0.136548 -0.0280095
46 2 8.9116898 9.2414503 1.7922 0.0357984 -0.0372142 0.0276075
47 2 5.7368698 5.5711899 5.4961601 -0.251259 -0.220634 0.165246
48 2 8.92651 5.09095 5.3716798 0.124928 0.0918967 0.0032119
49 2 5.3740001 9.0623503 5.4744301 0.0124574 0.0177346 0.0062166
50 2 8.90131 9.13239 5.8068199 0.0305557 0.0182117 -0.0464878
51 2 5.7005601 5.5549598 8.9894506 -0.114785 -0.051527 0.0433424
52 2 9.1089401 5.1962299 9.2220001 -0.0071716 0.0919084 -0.0721951
53 2 5.3576698 9.0867996 8.9461002 0.0937711 -0.0744189 0.0985174
54 2 9.2666597 8.88859 9.3263102 -0.080133 0.0829045 -0.0286332
