ITEM: TIMESTEP
184000
ITEM: NUMBER OF ATOMS
54
ITEM: BOX BOUNDS pp pp pp
-0.0442765 10.9522572
-0.0442765 10.9522572
-0.0442765 10.9522572
ITEM: ATOMS id type x y z fx fy fz
1 1 0.0511425 0.114165 10.8362999 -0.265621 -0.0497807 -0.0649653
2 1 3.3699901 0.089313 0.0143398 0.200434 -0.154607 -0.0935019
3 1 10.8148003 3.5216501 0.265528 0.0558432 0.0684255 -0.175371
4 1 3.6317699 3.5231099 10.8682004 -0.0119371 0.115746 0.0065483
5 1 10.7147999 10.8357001 3.4733601 0.0068831 0.198034 0.192449
6 1 3.6336999 0.0414247 3.39852 -0.0507022 0.0341108 0.0882018
7 1 10.7163 3.7766299 3.7008701 0.0930746 -0.0539618 0.085392
8 1 3.40889 3.53965 3.76052 0.0255841 0.0691114 -0.0297603
9 1 0.0412955 -0.0245448 7.0726099 -0.0366109 -0.07028 0.0716238
10 1 3.5950899 10.9105998 7.30509 0.0716451 -0.0378011 -0.0089619
11 1 10.6982003 3.6380201 7.5681801 0.274744 0.117528 -0.195661
12 1 3.6722501 3.49804 7.3855801 -0.0794847 -0.013439 -0.0881861
13 1 0.13089 7.4190898 10.7658997 0.0797683 -0.0429471 0.0320386
14 1 3.73892 7.23208 0.0675536 -0.0080446 -0.0086985 -0.158073
15 1 0.0781835 7.39993 3.4288399 0.019648 -0.0761978 0.025999
16 1 3.83391 7.5222702 3.69484 -0.34476 -0.312064 -0.0652293
17 1 10.9298 7.1057401 7.1382599 0.173423 0.168279 0.0230903
18 1 3.4007101 7.0117002 7.4437299 0.0993923 0.081601 -0.0413045
19 1 6.9905 0.085373 0.0788875 0.098802 -0.0176126 0.0145027
20 1 7.2427802 3.6954899 10.6466999 0.0420362 0.0040146 0.0885032
21 1 7.1890702 10.8437004 3.64625 0.0097929 0.051331 0.0315423
22 1 7.0832901 3.65252 3.7106099 0.114458 -0.141448 -0.20071
23 1 7.4412499 10.8978996 7.50141 -0.0396454 -0.0210908 -0.0634946
24 1 7.2052999 3.5160799 7.1401401 0.0698446 -8.2789002e-04 0.0443726
25 1 7.65307 7.3989902 0.0301864 -0.105957 -0.0652718 0.0133015
26 1 7.3219099 7.2990098 3.6687401 0.0724192 -0.0285643 2.4583099e-05
27 1 7.3203101 7.1626 7.4073401 -0.0500808 0.0772381 -0.0668542
28 2 1.84007 1.99642 1.67564 -0.0277901 -0.0394108 0.0778059
29 2 1.63186 1.88625 5.52951 0.0298298 0.0153483 -0.0175946
30 2 1.79026 1.57997 9.0882101 0.002925 0.107227 -0.0742063
31 2 2.0495 5.5002299 1.55513 -0.105628 -0.0453815 0.0806999
32 2 1.41293 9.5494004 1.7396 0.22821 -0.168404 -0.0353437
33 2 1.72666 5.5472203 5.3649202 0.0167176 -0.0280262 -0.0189364
34 2 1.9106 9.4036102 5.3594098 -0.0290733 -0.0603696 -0.0317266
35 2 1.79274 5.08601 9.1386404 -0.0345023 0.0488209 0.0248485
36 2 1.78668 9.1432104 8.8929596 -0.0132353 -0.0039858 0.0320443
37 2 5.3057099 1.9732 1.60383 0.0408515 -0.0133936 0.0851354
38 2 9.0513096 1.6705101 1.86525 -0.0408182 0.0288824 -0.0145245
39 2 5.4807301 1.65718 5.7372098 -0.02091 -0.0311543 -0.0862488
40 2 9.4029398 1.81986 5.44241 -0.0989341 -0.0122094 0.0033646
41 2 5.3979702 1.69634 9.0419903 0.0113219 -0.003428 0.0236503
42 2 9.3912602 1.7666201 8.9141998 -0.202432 -0.2047 0.196171
43 2 5.18644 5.48315 2.1163099 0.0614016 -0.0468461 -0.0681006
44 2 9.3449898 5.4147501 1.77747 -0.109692 0.112304 5.4681201e-04
45 2 5.2803798 8.8827106 1.69547 0.150808 0.163019 0.0146423
46 2 9.3541899 9.1832504 1.56786 -0.081862 -0.0072601 -0.0084364
47 2 5.5464201 5.31776 5.2746 -0.119452 0.119409 0.140946
48 2 9.2006903 5.40522 5.7105198 -0.105602 -0.0371711 -0.103909
49 2 5.17138 9.2365399 5.19558 0.214878 0.183499 0.256716
50 2 9.2701798 8.8017397 5.6061702 -0.0690642 0.0959096 -0.0699983
51 2 5.5674701 5.3327499 8.8276196 -0.0608235 0.0192024 0.0669991
52 2 9.3560696 5.7744899 9.0113697 -0.103378 -0.0972084 0.1491
53 2 5.7118902 9.0120802 9.4492798 -0.0594959 -0.0064792 -0.0769669
54 2 9.2679796 9.1073198 9.0848198 0.0107984 0.0209811 -0.0121933
