ITEM: TIMESTEP
172000
ITEM: NUMBER OF ATOMS
54
ITEM: BOX BOUNDS pp pp pp
-0.1053162 11.0132961
-0.1053162 11.0132961
-0.1053162 11.0132961
ITEM: ATOMS id type x y z fx fy fz
1 1 0.0739867 -0.0684855 10.8007002 -0.0598473 -0.0840966 0.0128567
2 1 3.59147 10.9745998 -0.0638958 0.0579635 0.0771185 -0.0650778
3 1 10.9148998 3.33112 0.185918 0.162438 0.292164 -0.220762
4 1 3.6090701 3.6673401 -0.0585613 0.0023323 0.0082544 -0.150549
5 1 0.126879 -0.0837931 3.72312 -0.183982 -0.108772 -0.18431
6 1 3.5869999 10.9320002 3.4842201 0.0624537 -0.0206962 0.0632579
7 1 0.0438144 3.5118301 3.8148401 -0.01318 0.0209706 -0.0605159
8 1 3.7272501 3.47906 3.26177 -0.162492 0.0037036 0.161503
9 1 0.0705847 0.138372 7.10462 -0.170872 -0.109091 0.205328
10 1 3.5081201 -0.0020589 7.2866402 0.105537 -0.0489364 0.020878
11 1 10.7147999 3.6088901 7.2329502 0.107859 0.0628474 0.129987
12 1 3.52492 3.6542599 6.94415 -0.0272053 -0.0915245 0.0554738
13 1 10.9882002 7.1248002 0.115412 -0.0317678 0.0408528 -0.0391246
14 1 3.7372 7.4056602 -0.0349336 -0.0846416 -0.0342523 0.0263773
15 1 10.8740998 7.2543802 3.84429 0.0604698 -0.0318274 -0.161526
16 1 3.7479999 7.1609998 3.62572 -0.181702 0.0141433 0.0261714
17 1 10.8611002 7.2532301 7.2857399 0.0105862 0.0201774 0.117939
18 1 3.7344899 7.07827 7.50387 -0.135504 0.0834321 -0.0343653
19 1 7.23668 10.7236996 -0.0762864 0.0964901 0.20748 -0.0830999
20 1 7.2969699 3.6440201 10.9936 0.0220339 -0.0701655 0.0499852
21 1 7.2898898 11.0045004 3.4305001 0.0336389 0.048951 0.0963606
22 1 7.0458102 3.60235 3.67557 0.214651 -0.0889201 -0.0242637
23 1 7.3558402 10.8016005 7.2252498 -0.0307978 0.103908 -0.0380273
24 1 7.2431202 3.7428601 7.40802 -0.0410767 -0.091903 -0.146909
25 1 7.1710901 7.3297 -0.0031664 0.1533 -0.0956592 -0.0972421
26 1 7.05124 7.3600998 3.4012101 0.199465 -0.0265344 0.144683
27 1 7.1198001 7.2827902 7.2128701 0.181588 -0.0305527 -0.0174729
28 2 1.58602 1.6606 1.7984901 0.0758781 -0.002316 -7.5268102e-04
29 2 1.7312401 1.5670001 5.34443 0.151965 0.137728 -0.0010455
30 2 1.93844 2.00472 9.20292 -0.029463 -0.0224857 -0.0228373
31 2 1.72068 5.6329098 1.89167 0.01921 -0.0426522 0.009943
32 2 1.78827 9.3676005 1.67321 -0.0354645 -0.067903 0.0094881
33 2 1.7172001 5.5409899 5.4284802 0.004317 0.0025714 0.0095859
34 2 1.56294 9.0791302 5.6405201 0.0584418 -0.0127276 -0.0165415
35 2 1.87693 5.5647102 9.3881703 -0.0314828 -0.0157234 -0.0165322
36 2 1.97766 9.2042303 9.2311001 -0.0266098 -0.0305004 -0.032072
37 2 5.3990598 1.6119401 1.64421 0.036154 0.0062702 -0.0168784
38 2 9.3821802 1.64404 1.59524 -0.191249 -0.184683 0.169524
39 2 5.3496499 1.50218 5.3019099 0.0170425 0.0255511 0.0177692
40 2 9.0387201 1.8509002 5.5999298 -0.0342388 -0.0386095 -0.0515138
41 2 5.6275201 1.98284 8.9802104 -0.0738292 -0.0760629 0.0458642
42 2 9.0050297 1.61025 9.2468596 0.0090398 0.0192722 -0.013908
43 2 5.6350198 5.3201299 1.67307 -0.0586227 0.0287539 -8.6768704e-04
44 2 9.2427902 5.0336199 2.1204 -0.0244141 0.054595 -0.0507039
45 2 5.5313401 9.2708798 1.6947201 -0.0926789 -0.0402559 0.0412251
46 2 9.1046104 9.1498699 1.95236 0.0414732 -0.0149077 -0.0395538
47 2 5.4642 5.2437902 5.3789902 -0.0324136 0.0891512 0.0316874
48 2 8.99403 5.3987198 5.2800698 -0.0166524 0.0028901 0.0444581
49 2 5.2918 8.91076 5.6651902 -0.0263466 0.0716833 -0.0600194
50 2 9.3255701 9.1709004 5.2834201 -0.0793005 0.0589454 0.063153
51 2 5.7107101 5.5486398 9.1891298 -0.0863246 -0.0214744 0.0387107
52 2 8.86553 5.3853202 9.0739698 0.103407 0.0762246 0.0558076
53 2 5.6539402 9.0581903 9.1560698 -0.0646117 0.0147701 -0.0162927
54 2 9.2054901 9.4644499 9.0583801 0.0390358 -0.0691771 0.014747
