ITEM: TIMESTEP
170000
ITEM: NUMBER OF ATOMS
54
ITEM: BOX BOUNDS pp pp pp
-0.0605063 10.9684868
-0.0605063 10.9684868
-0.0605063 10.9684868
ITEM: ATOMS id type x y z fx fy fz
1 1 0.0515148 10.8544998 10.8486004 -0.122544 0.0365677 0.0448373
2 1 3.4951101 0.0349055 0.135011 0.0824486 -0.131078 -0.140831
3 1 10.9225998 3.3575699 10.9460002 -0.0077334 0.0570638 -0.0111074
4 1 3.44115 3.7195101 10.8207999 0.120652 -0.017004 0.067926
5 1 0.0516602 0.313046 3.63042 -0.0211126 -0.130955 -0.0039612
6 1 3.5603199 0.0335053 3.4867499 0.0182919 -0.0862125 0.164241
7 1 0.0425633 3.8022201 3.4737401 -0.0115781 -0.0148904 0.0279098
8 1 3.79773 3.46135 3.53632 -0.0987563 0.132701 0.0320879
9 1 10.7824002 0.0372349 7.2402401 0.172594 -0.180886 -0.0845356
10 1 3.5878699 -0.0023414 7.69447 -0.133547 -0.178418 -0.149653
11 1 10.8996 3.76404 7.1778002 0.0621742 -0.0882557 0.058237
12 1 3.6204701 3.4647501 7.2993598 0.0338964 0.0969558 -0.0258587
13 1 10.8500996 7.17803 10.7505999 0.125211 0.0638259 0.0510407
14 1 3.5276799 7.4925399 10.9644004 0.0931556 -0.109922 -0.0230839
15 1 0.066511 7.3934302 3.8346501 -0.0960382 -0.031131 -0.135494
16 1 3.5858 7.5316201 3.4128499 0.0197116 -0.112646 0.103569
17 1 10.9453002 7.2796998 7.2911701 0.0690968 0.0498084 -0.0277828
18 1 3.7061301 7.23982 7.1127601 -0.0462019 0.0222082 0.0402422
19 1 7.4640999 0.291365 0.103162 -0.0724369 -0.184452 -0.188268
20 1 7.43294 3.79143 10.927 -0.0210703 0.0173854 -0.0221207
21 1 7.1661801 10.9012004 3.69272 -0.0019002 -0.134755 0.0161892
22 1 7.19695 3.2395699 3.52245 0.0722858 0.179166 0.0876436
23 1 7.1371999 0.0322902 7.1957898 -0.0211091 -0.164658 0.155206
24 1 7.2621799 3.50632 7.3803001 -0.0262869 0.0551394 -0.0523051
25 1 7.2775502 7.4720102 0.04334 -0.0562251 -0.0326692 -0.0881853
26 1 7.3126202 7.2874398 3.5811 0.0282059 -0.0514683 0.0194333
27 1 7.29634 7.1440001 7.2571702 -0.0175378 0.0451581 -0.0203601
28 2 2.0174501 1.83854 1.67511 -0.130024 0.0822556 0.0611474
29 2 1.81846 1.73184 5.5956898 -0.0031403 0.0110611 -0.0110582
30 2 1.67309 1.92817 8.9597102 -0.0211998 -0.0257796 0.0328643
31 2 1.8415102 5.4513603 1.78545 0.0134753 0.0289213 -0.020673
32 2 1.6129301 9.0409899 1.6681 -0.0163463 0.022221 0.0347646
33 2 1.9210402 5.29071 5.5959301 -0.0063785 0.0283558 -0.0530114
34 2 1.60438 9.1163702 5.49122 0.077093 0.0805996 0.0491936
35 2 2.00632 5.5246701 9.0937901 -0.0662438 0.034473 -0.0470815
36 2 1.7631201 9.0828695 9.4032698 -7.2757197e-05 0.0091963 -0.142776
37 2 5.3593102 1.76629 1.50138 0.0239825 0.0607521 0.0717923
38 2 8.9429798 1.48252 2.09268 0.159213 0.116773 -0.0108664
39 2 5.1132202 1.4692201 5.6342201 0.0417831 0.0517838 -0.0612219
40 2 8.8959504 1.52616 5.5635901 0.0569697 0.106537 -0.100017
41 2 5.3129101 1.45958 9.3554402 0.0981619 0.129704 0.0054792
42 2 9.2757101 1.74233 8.74613 -0.116463 0.103351 0.181909
43 2 5.7512398 5.2505398 1.76895 -0.0668238 0.0553826 0.019394
44 2 9.4434901 5.7964502 1.7138 -0.085073 -0.0897742 0.0810107
45 2 5.5230899 9.1528196 1.95055 -0.0013142 0.0311285 -0.0738268
46 2 9.1370297 9.0754404 1.58686 0.0425076 0.050088 0.0570541
47 2 5.6236401 5.5288501 5.3837099 -0.0349558 -0.0524614 -0.0182068
48 2 9.1757402 5.16957 5.3748298 -0.0756744 0.0703026 -0.0391883
49 2 5.4428702 9.0873899 5.4910898 -0.0047849 0.0091757 -0.0104187
50 2 8.9317398 8.95885 5.5422702 0.0338723 0.0453202 -0.0212609
51 2 5.5215001 5.5647102 9.0245104 -0.0293782 -0.0275953 0.0423052
52 2 9.1601801 5.6591602 8.97651 -0.0483912 -0.108459 0.0222348
53 2 5.4918299 9.1103001 9.1751604 0.0045045 0.0046126 -0.00597
54 2 8.9942704 8.97497 8.8361397 0.0110549 0.0654954 0.0614129
