ITEM: TIMESTEP
130000
ITEM: NUMBER OF ATOMS
54
ITEM: BOX BOUNDS pp pp pp
-0.1124277 11.0204077
-0.1124277 11.0204077
-0.1124277 11.0204077
ITEM: ATOMS id type x y z fx fy fz
1 1 -0.0533056 10.9088002 10.9245006 0.015677 -0.0037712 0.071933
2 1 3.7656901 10.8872004 -0.0343454 -0.0258066 0.0718846 0.0228756
3 1 -0.0291099 3.3587101 0.0947178 -0.17738 0.137784 -0.14878
4 1 3.2800601 3.76014 10.8937998 0.1651 -0.114359 -0.0497089
5 1 10.9954996 10.9471998 3.4794801 0.0824412 -0.0401599 0.0207233
6 1 3.6113 11.0117998 3.69977 0.0342226 -0.0096071 -0.0689405
7 1 10.9291 3.46838 3.41537 0.104616 0.0487597 0.185212
8 1 3.74755 3.6921599 3.5370701 -0.0312761 -0.0776996 0.034298
9 1 10.7855997 10.9680004 7.3253698 0.0089098 0.0181669 -0.0437075
10 1 3.4392801 11.0162001 7.21871 0.0049703 0.0616647 0.094077
11 1 -0.0991198 3.43464 7.2225299 0.0061536 0.0780884 0.0114979
12 1 3.66239 3.63027 7.2908602 -0.0158783 -0.0297727 -0.0204479
13 1 10.9903002 7.3877201 -0.0025274 0.0645172 -0.167662 -0.17069
14 1 3.3749199 7.2522302 10.8445998 0.133592 -0.0620634 0.161068
15 1 0.137076 7.0925899 3.4739101 -0.0886845 0.0145405 0.0851884
16 1 3.65199 7.3299599 3.77105 -0.0025646 0.0448102 -0.0258404
17 1 10.9891006 7.3861199 7.3470502 -0.009435 0.0729939 -0.0745434
18 1 3.7474501 7.2460899 7.2816501 -0.0738078 0.0220334 0.0206871
19 1 7.3730698 -0.0638251 -0.0042731 0.0322342 -0.0312854 0.0047133
20 1 6.9656902 3.46925 0.0016628 0.0411791 0.0816739 0.0161633
21 1 7.6072603 0.0301752 3.7735 -0.112956 -0.0405774 -0.0209357
22 1 7.4678502 3.92975 3.5460999 -0.0557992 -0.0866732 0.0430241
23 1 6.9818102 10.9132004 7.4777599 0.0936995 0.0319132 -0.0243487
24 1 7.2940698 3.7880299 7.42341 0.0053676 -0.122026 -0.0397264
25 1 7.1162701 7.4781099 10.9407998 0.0401838 -0.0645466 0.045213
26 1 7.36587 7.3850098 3.6018901 0.0069654 0.0649266 -0.0393615
27 1 7.29421 7.2546501 7.2900801 -0.0055972 0.0956921 0.0538172
28 2 1.6611101 1.5673501 1.7246 0.0550725 -0.012699 0.0140186
29 2 1.8047301 1.69616 5.1707702 -0.0308377 0.0367617 0.0381879
30 2 1.2841901 1.74867 9.3038998 0.127012 -0.0285302 -0.106233
31 2 1.9772 5.4062801 1.7005101 -0.0887567 0.0375516 0.0556952
32 2 1.79265 8.9663802 1.8677 0.0273896 0.0477488 -0.0272924
33 2 1.76659 5.3654399 5.47647 1.60157e-04 1.2630999e-05 -0.0012179
34 2 1.78552 9.3625002 5.5008002 -0.0546394 -0.0696084 -0.0266876
35 2 1.51699 5.7661 8.9218998 0.0701636 -0.109417 0.0738247
36 2 2.1822801 9.1598702 9.2659903 -0.165573 0.0990343 -0.118497
37 2 5.6143999 1.41045 2.0327499 -0.0203755 0.0692454 -0.0302309
38 2 9.1594801 1.87053 1.70827 -0.0583253 -0.0635028 0.0010927
39 2 5.6912198 1.7650301 5.36588 -0.0263227 0.0226817 0.0225044
40 2 9.2712603 1.83504 5.4050799 -0.0125195 0.0067826 0.0179955
41 2 5.54386 1.7995401 9.1731796 -0.0553594 -0.0157288 -0.0111064
42 2 9.0598097 1.77954 9.3193398 0.0015891 0.0055751 -0.0187917
43 2 5.1237502 5.6834603 1.88839 0.101641 -0.0039946 -0.0833665
44 2 9.2062397 5.35148 1.40766 -0.021201 0.017829 0.0186645
45 2 5.6318498 9.3364496 1.95535 -0.0105467 -0.0277539 -0.0024015
46 2 9.39258 9.0068197 1.5446201 -0.129226 0.103902 0.127848
47 2 5.6368199 5.5969501 5.5142498 -0.0353208 -0.0429447 -0.0385091
48 2 9.2516499 5.8025298 5.5113402 0.0010897 -0.0701655 -0.0346304
49 2 5.3612499 9.1719904 5.5660601 0.0236092 0.0045923 -0.0242954
50 2 8.8839704 9.0678997 5.59547 0.0561647 0.0473853 -0.0051537
51 2 5.3641801 5.4902201 9.2818499 0.0114289 -0.0093583 -0.0125456
52 2 9.1323099 5.5500899 8.90228 0.0400883 -0.0071275 0.0777245
53 2 5.3301902 9.0981998 9.2011099 0.0125847 0.0036535 -0.0172262
54 2 9.2756701 9.2322302 9.3085203 -0.0596337 -0.036655 -0.0328305
