ITEM: TIMESTEP
200000
ITEM: NUMBER OF ATOMS
54
ITEM: BOX BOUNDS pp pp pp
-0.0820347 10.990015
-0.0820347 10.990015
-0.0820347 10.990015
ITEM: ATOMS id type x y z fx fy fz
1 1 10.9311 -0.0782661 -0.0737769 -0.0135606 -0.0493602 0.0342286
2 1 3.49593 0.212459 10.7206002 0.0419136 -0.076141 0.0370395
3 1 10.9341002 3.4654 10.9884006 0.104182 -0.0028016 -0.0388741
4 1 3.64112 3.8028901 -0.0346173 -0.0788871 0.0176302 9.2238293e-05
5 1 0.278893 10.9103004 3.9475802 -0.126308 0.0621215 -0.205786
6 1 3.7498701 -0.0404191 3.6600499 0.0291333 -0.0431292 -0.0761279
7 1 10.9357004 3.47399 3.42116 0.078195 0.0230541 0.0846649
8 1 3.80335 3.6067601 3.5741799 -0.105051 -0.0061217 0.0742
9 1 0.050109 -0.0655793 7.2406001 -0.166825 -0.112069 0.151551
10 1 3.42955 -0.0428881 7.08704 0.218335 -0.118087 0.133149
11 1 10.8687 3.3351801 7.16328 0.167117 0.143059 0.070884
12 1 3.68257 3.66522 7.5167499 0.0140598 -0.0865405 -0.103641
13 1 10.9847002 7.09023 10.8263998 0.0734758 0.0252359 0.0969728
14 1 3.5916801 7.60289 0.116233 -0.0263431 -0.0257993 -0.0584063
15 1 10.8610002 7.2388902 3.6206701 0.044098 0.060649 -0.0635392
16 1 3.6677001 7.2509899 3.58739 -0.113297 0.0835159 0.103875
17 1 10.8710004 7.4091802 7.3677602 0.0518507 -0.0585782 -0.0845606
18 1 3.4632499 7.1897402 7.47508 0.0448363 0.0657692 -0.0494998
19 1 7.1501899 -0.0650665 10.8716002 0.0255183 -0.0501673 0.0704479
20 1 7.2546201 3.4821601 -0.0773812 -0.0309 0.0881399 0.0348589
21 1 7.4651199 -0.0206756 3.65766 -0.0274736 0.0406892 -0.0429453
22 1 7.3659401 3.68572 3.8148301 0.032703 -0.145521 -0.110573
23 1 7.4518399 0.0434433 7.2459302 -0.0341637 -0.0304313 0.0459061
24 1 7.38444 3.95027 7.2206402 -0.0633697 -0.0939892 0.0848523
25 1 7.2112198 7.4011698 0.039746 0.0295481 -0.0406839 -0.103531
26 1 7.1104999 7.0082998 3.4491301 0.172388 0.217061 0.0583162
27 1 7.3262601 7.4033699 7.1281099 -0.0588239 0.0326845 0.0444711
28 2 1.93678 1.71209 1.7934701 -0.0607863 0.0119735 0.0062281
29 2 2.0862801 1.83934 5.5069199 -0.086908 0.0916979 -0.073231
30 2 1.6813801 1.5961401 8.92445 -0.0050648 0.100629 0.0418764
31 2 1.8200701 5.4580302 2.05216 -0.0208361 -0.0094763 -0.0505547
32 2 1.51002 9.1774597 1.86518 0.033989 -0.0204496 -0.0249791
33 2 1.6658601 5.2234602 5.4618402 0.0326849 0.0171904 -0.0018304
34 2 1.70664 8.9859104 5.5664902 0.0478762 -0.0523366 0.0063864
35 2 1.66183 5.2919998 8.88651 -0.0467089 0.0025162 0.0578659
36 2 1.77212 9.1776104 9.2146101 -0.0135136 -9.8093596e-04 -0.0113202
37 2 5.0324402 1.76414 1.69004 0.137854 -0.0157238 -0.0303949
38 2 9.0343304 1.86145 1.90299 -0.0124814 -0.0391306 -0.0501067
39 2 5.46239 1.83296 5.5997901 0.0155673 0.0050829 -0.0144775
40 2 9.1237898 1.8151701 5.6184502 -0.0503435 -0.053443 -0.118705
41 2 5.7002902 1.67783 8.9387598 -0.0647115 0.05401 0.0097289
42 2 9.0716295 1.8042801 9.4047203 0.0151731 -0.041801 -0.083918
43 2 5.28999 5.5002499 1.79144 0.0212685 -0.0291378 -0.0666586
44 2 9.2733402 5.3811798 1.43299 -0.0605114 0.0063072 0.0721726
45 2 5.4921398 9.2343102 1.88519 0.0073042 0.0105513 -0.0060723
46 2 9.0287704 9.2484999 1.9357002 0.0314082 -0.0314689 -0.0358213
47 2 5.4384499 5.4678602 5.2143002 -0.037014 -0.0107903 0.127221
48 2 9.5741701 5.4357701 5.3957701 -0.110189 -0.0460327 0.0491067
49 2 5.7170701 9.3135996 5.3051701 -0.0492451 -0.0345542 0.0270097
50 2 9.0054502 9.2555304 5.4811702 0.0735197 -0.0278202 -0.0190686
51 2 5.4106002 5.4629302 9.2329703 0.0358122 0.0341859 0.0034846
52 2 9.4431896 5.1303601 9.0130196 -0.0481181 0.0661464 0.0256259
53 2 5.3803101 9.1043997 9.08951 0.0039149 0.014744 -0.0109067
54 2 9.2818403 8.9204502 9.3245602 -0.0722901 0.0779232 -0.0166854
