ITEM: TIMESTEP
112000
ITEM: NUMBER OF ATOMS
54
ITEM: BOX BOUNDS pp pp pp
-0.0711262 10.979106
-0.0711262 10.979106
-0.0711262 10.979106
ITEM: ATOMS id type x y z fx fy fz
1 1 0.164532 -0.0124178 10.9722996 -0.0772229 -0.027427 0.0926437
2 1 3.7474699 0.0173227 0.109455 0.0098308 0.0117769 0.0431439
3 1 -0.0578227 3.8009901 10.7774 -0.10808 0.0017182 0.0563732
4 1 3.2748499 3.6475799 10.7953997 0.199378 -0.011154 0.0083471
5 1 10.9510002 -0.0243418 3.5859101 0.0885748 -0.0216842 0.0582206
6 1 3.79104 10.8592998 3.8278401 -0.0514922 -0.136431 -0.0166455
7 1 10.9403 3.6225901 3.45735 0.156637 0.0775624 0.0754603
8 1 3.89767 3.1937201 3.22632 -0.205117 0.414476 0.334099
9 1 10.7360001 0.144432 7.5539198 0.0044082 -0.0806866 -0.0921979
10 1 3.4312301 0.0761449 7.5700403 -0.0461893 0.0280535 -0.0511068
11 1 10.8462 3.55439 7.22257 0.141691 0.0790377 -0.0288818
12 1 3.6112199 3.7239599 7.2186198 0.0435386 -0.0030377 0.0052351
13 1 10.9496002 7.3690701 10.6604004 -0.197162 -0.0176786 0.175264
14 1 3.31935 7.1932201 10.9383002 0.136634 0.0958633 0.15351
15 1 0.0427646 7.3117099 3.4339001 -0.0146442 -0.0421107 -0.016271
16 1 3.83968 6.9702402 3.6665499 -0.121162 0.0616256 -0.0164894
17 1 10.8899002 7.3350802 7.1489601 -0.0054439 0.0283929 -0.0501742
18 1 3.5204799 7.5407 7.4184098 0.144658 -0.132181 -0.151113
19 1 7.3762698 10.8999004 0.0372456 0.0418032 0.0949167 -0.0395028
20 1 7.4217301 3.5987301 0.101895 -0.0954137 0.0733772 -0.0406153
21 1 7.4449702 10.915 3.5548301 -0.0679755 0.0357173 0.0111295
22 1 7.5213399 3.6954401 3.65449 -0.110067 0.0119872 -0.0668655
23 1 6.9758402 10.8844004 7.38099 0.0302149 0.173245 0.082999
24 1 7.45537 3.76558 7.1901999 -0.142371 -0.0904094 0.0565689
25 1 7.2223902 7.5028901 10.974 0.0226412 -0.0990205 0.0482101
26 1 7.4278403 7.2813802 3.72151 0.056996 0.0119703 -0.0222198
27 1 7.1728501 7.25845 7.42518 -0.015104 8.1974802e-04 -0.0448001
28 2 1.88665 1.84963 1.9501 -0.143907 -0.114571 -0.111834
29 2 1.91437 1.74491 5.4196401 -0.0285334 0.0080093 -0.0025822
30 2 1.5577101 1.7867 9.2621403 0.0565276 0.0416359 -0.0752652
31 2 1.6439001 5.38064 1.70058 0.024827 0.0123595 0.0091962
32 2 1.85811 9.3160896 1.76423 0.0110024 -0.03285 0.0178588
33 2 1.97973 5.1970701 5.2845101 -0.052378 0.0241343 -0.0203264
34 2 1.87956 8.6814204 5.24295 0.0035538 0.0803389 0.0129473
35 2 1.6664701 5.7817102 9.0225697 0.0033494 -0.174763 -0.0728751
36 2 1.67644 8.79912 9.0523396 -0.0312694 0.26667 0.011388
37 2 5.7268901 1.93584 1.8451 0.258924 -0.251001 -0.208809
38 2 9.4131603 1.90027 1.8101701 -0.0745454 -0.0678339 -0.0831846
39 2 5.34482 1.75893 5.3544898 0.0723702 0.0146414 0.0709721
40 2 9.09937 1.8971 5.1935301 0.0442956 -0.0645867 0.0872136
41 2 5.7105098 1.89965 9.4143496 -0.0490198 -0.010671 -0.0388459
42 2 9.0619803 2.09145 9.3599997 0.0207454 -0.0931394 -0.0741078
43 2 5.4927302 5.4197102 1.81597 0.0342909 -0.0190948 -0.048609
44 2 9.12327 5.45397 1.53701 0.035689 0.0629237 0.0489351
45 2 5.4470301 8.7890702 1.97721 -0.0087031 0.0715271 -0.0278122
46 2 9.5488396 9.1257 1.62867 -0.0712209 0.0125874 3.2274599e-04
47 2 5.6036101 5.3430801 5.21105 0.0124624 -0.0394149 0.0905934
48 2 9.3004999 5.5148502 5.5078802 -0.0277321 -0.0061761 -0.0542933
49 2 5.7646899 9.0427504 5.5966501 -0.115506 -0.0269817 -0.0979305
50 2 8.9373198 9.6128397 5.7604199 0.0908427 -0.0998828 -0.0733494
51 2 5.3931399 5.7083802 9.4940996 0.0063355 -0.0681357 -0.0622024
52 2 8.9622298 5.5998502 9.0678597 0.0422573 -0.0263557 0.0367958
53 2 5.14886 9.3368101 9.1918402 0.0537421 -0.0572956 0.0400187
54 2 9.0076103 9.0841599 8.9085904 0.01204 0.0192069 0.0614632
