ITEM: TIMESTEP
110000
ITEM: NUMBER OF ATOMS
54
ITEM: BOX BOUNDS pp pp pp
-0.0804374 10.9884176
-0.0804374 10.9884176
-0.0804374 10.9884176
ITEM: ATOMS id type x y z fx fy fz
1 1 -0.0568717 10.8881998 0.195235 0.0045745 0.0151154 -0.0627305
2 1 3.6600499 0.0851659 -0.0205627 -0.0186796 -0.0510599 -0.0431719
3 1 10.8754998 3.6896999 10.9561996 0.04301 -0.126425 0.058734
4 1 3.42115 3.82023 -0.0094694 0.17601 -0.230436 0.0645096
5 1 -0.0657775 0.193217 3.74907 -0.0689843 -0.0574843 0.0434831
6 1 3.3662501 10.7420998 3.6687701 0.108493 0.179371 0.0140493
7 1 10.8736 3.97909 3.6334801 -0.0363278 -0.223868 -0.0681011
8 1 3.3791399 3.4367001 3.58761 0.0859388 0.0602569 0.081747
9 1 0.219593 0.0404205 7.51401 -0.110558 -0.0376591 -0.0460884
10 1 3.79109 0.193188 7.1841102 -0.0101405 0.0095688 0.0460438
11 1 10.9076996 3.6147101 7.4621401 -0.0024407 0.0792704 -0.127889
12 1 3.4739599 3.99455 7.38414 0.0423271 -0.0363522 -0.114829
13 1 10.6658001 7.1389999 10.8451996 0.159141 0.171085 0.0771232
14 1 3.48507 7.22643 0.141611 -0.0083596 0.212708 -0.154091
15 1 10.9523002 7.3600302 3.6533799 0.0280073 0.10132 -0.0618063
16 1 3.70875 7.4169102 3.7026301 -0.0500027 -0.146213 -0.0468987
17 1 0.0990982 7.39855 7.42065 -0.0515707 -0.128646 -0.0263356
18 1 3.6896999 7.5279298 7.0914502 -0.0410538 -0.0103878 0.167336
19 1 7.4268999 10.5458002 10.8312998 0.0523193 0.271811 0.0542553
20 1 7.3516998 3.4612401 -0.0182621 -0.0259613 -0.0037936 -0.081506
21 1 7.2941599 10.8042002 3.3942001 -0.121475 0.145688 0.17801
22 1 7.15975 3.4075201 3.35916 0.0343381 0.0789682 0.133433
23 1 7.3358302 10.7248001 7.3055501 0.100799 0.198341 -0.0468388
24 1 7.0013599 3.84384 7.4938698 0.131973 -0.136597 -0.0848469
25 1 7.1180201 7.1431398 10.8481998 0.0481959 -0.0605902 0.104756
26 1 7.25491 7.1968498 3.75417 -0.0172355 -0.0702166 -0.0970057
27 1 7.1910901 7.36127 7.3196602 0.0812156 -0.112556 -0.0232499
28 2 1.73171 1.8928 1.81783 -0.0516254 -0.0435512 -0.0496352
29 2 1.5538501 1.8645102 5.5720001 0.0493995 0.0393563 -0.0148797
30 2 1.9930202 2.0135801 8.82512 -0.0158212 -0.0475535 0.116803
31 2 1.87271 5.54876 1.79044 -0.102007 -0.0202954 0.0830475
32 2 1.74694 9.1595202 1.88924 -0.0337733 -0.0470026 -0.0389673
33 2 1.52024 5.4305001 5.3784199 0.0834311 0.0489823 0.0690857
34 2 1.50761 9.0510702 5.6395898 0.0727802 0.0935099 -0.0992969
35 2 1.82015 5.27875 9.3622503 -0.145613 0.168324 -0.0857268
36 2 1.88131 9.4567299 9.1985502 0.0424489 -0.067303 0.0328046
37 2 5.3176499 1.77928 1.6541801 0.0164786 0.0053572 0.0276685
38 2 9.1858301 1.61364 1.90644 -0.0147441 0.0432126 -0.0457461
39 2 5.5813699 1.69804 5.1764798 -0.0247144 -0.0169122 0.0343563
40 2 9.0264997 1.5745501 5.8081398 0.0165947 0.037677 -0.0535485
41 2 5.6609502 1.70583 9.2249003 -0.0204689 -0.0147084 -0.0053939
42 2 9.2975598 1.74975 8.9812298 -0.0706234 -0.034774 0.0834806
43 2 5.2576399 5.6743498 1.82568 0.0659728 -0.0855447 0.0254631
44 2 9.2752705 5.5142298 1.6173901 -0.111194 -0.0292084 0.0839537
45 2 5.6435199 9.0059004 1.70919 -0.0728524 -0.0069533 -0.0015004
46 2 8.8627196 9.2143498 1.8145601 0.199922 -0.186069 -0.0438785
47 2 5.45149 5.2265701 5.3839202 -0.022864 0.0361399 -0.0335461
48 2 9.0864601 5.3812699 5.4798398 -0.0326257 0.0224145 0.0445278
49 2 5.4615002 9.3163405 5.59481 0.0057261 -0.0209147 -0.0939522
50 2 9.0280895 8.8673698 5.2744999 0.0307661 0.0911737 0.0803672
51 2 5.4182902 5.45049 9.2722998 -0.0849331 0.0134615 0.008057
52 2 9.1500101 5.50774 9.0194998 -0.0572954 -0.0294641 -0.0275679
53 2 5.70222 9.20259 9.1546602 -0.201309 -0.0889572 -0.0615389
54 2 9.3814297 9.0739498 8.9545498 -0.0546086 0.0483814 0.0274713
