ITEM: TIMESTEP
114000
ITEM: NUMBER OF ATOMS
54
ITEM: BOX BOUNDS pp pp pp
-0.1110959 11.0190763
-0.1110959 11.0190763
-0.1110959 11.0190763
ITEM: ATOMS id type x y z fx fy fz
1 1 10.9188996 0.0940241 -0.0835123 0.0434264 -0.058577 0.0233288
2 1 3.5218201 0.0455884 -0.0077293 0.0202785 -0.0329957 -0.0098451
3 1 10.8334999 3.72155 -0.0717594 0.262178 0.0855839 0.0776833
4 1 3.5822201 3.67624 10.9483004 -0.0140533 -0.01587 0.0597975
5 1 10.6701002 10.7664004 3.70259 0.143294 0.126427 0.0293157
6 1 3.4034901 10.9111004 3.6909101 0.0115181 0.0831612 -0.068648
7 1 -0.0322213 3.81056 3.75296 -0.16983 -0.264871 7.6717e-05
8 1 3.61536 3.6201701 3.4926801 -0.0228655 -0.02694 0.0087433
9 1 -0.0114065 10.8971996 7.3880501 -0.0662544 0.0060652 -0.0449089
10 1 3.7047801 -0.0572352 7.2293801 -0.0412131 -0.0171093 0.0690239
11 1 -0.0334917 3.22383 7.30336 0.0014871 0.140261 0.0145601
12 1 3.6693399 3.52019 7.1965199 -0.0507752 0.0551826 -0.01201
13 1 11.0081997 7.4934702 -0.0356266 -0.0411159 -0.0227621 -0.0131715
14 1 3.4367099 7.3306098 -0.0057949 0.0566021 0.005432 -0.0846287
15 1 11.0061998 7.1408801 3.5890999 -0.0622656 0.191221 0.0663228
16 1 3.59778 7.35178 3.5465901 -0.0801685 -0.0398321 0.0798693
17 1 -0.0125022 7.3193998 7.4727302 0.0275719 -0.0483957 -0.0419071
18 1 3.8213001 7.4457999 7.2086701 -0.0425628 -0.0323471 0.0179721
19 1 7.28757 10.6426001 10.9723998 -0.0287573 0.106176 0.0619627
20 1 7.56351 3.27033 11.0106001 -0.259569 0.0810585 0.068485
21 1 7.1021299 10.9941998 3.6482201 0.0358173 -0.0052305 -0.142011
22 1 7.1169701 3.3318999 3.7262101 0.0708419 0.115733 -0.0678388
23 1 7.35073 -0.0544384 7.0852399 0.0490709 -9.6141596e-04 0.142106
24 1 7.2417798 3.7828501 7.27176 -0.0185539 -0.13119 0.0848239
25 1 7.3148298 7.1044102 10.9389 -0.0231103 -0.0508883 -0.0226975
26 1 7.1312099 7.3239699 3.4322 0.0749999 -0.0148492 0.0582866
27 1 7.47608 7.2650399 7.2248201 -0.0422026 0.0681986 0.0197326
28 2 1.4178801 1.89145 1.93777 0.0337259 -0.0265554 -0.0227692
29 2 1.63911 1.7177 5.33534 0.0221436 -0.0204477 -0.0021441
30 2 2.0392001 1.74913 9.07934 -0.0461997 -2.31865e-04 0.0100471
31 2 1.53219 5.4343801 2.0481701 0.125977 0.0093131 -0.162443
32 2 1.7758301 9.20473 1.59998 -0.0325603 0.0270037 0.0496719
33 2 1.76748 5.3582001 5.3544002 0.0579019 0.0541519 0.0794742
34 2 1.83662 9.2525196 5.5288201 -0.0392433 -0.0507695 0.013262
35 2 1.99904 5.4159799 9.0429401 -0.0616548 0.0145813 -0.0102422
36 2 1.78537 9.4903298 9.1536102 0.0393643 -0.0658779 0.0480385
37 2 5.6033502 1.6634901 1.5553 -0.0220505 -9.8523198e-04 0.026814
38 2 9.2139702 1.66167 1.88902 -0.0204575 0.0121844 0.0179255
39 2 5.3575201 1.70221 5.5713701 0.0242185 0.012314 -0.0529412
40 2 9.0597801 1.8134201 5.4534703 0.0315415 -0.0102035 -0.005899
41 2 5.4482498 1.88371 9.3369103 0.0079133 -0.0344269 -0.0443104
42 2 9.3818503 1.9448 9.33037 -0.0209223 -0.130305 -0.132451
43 2 5.2958799 5.61794 1.75841 0.0148914 -0.0501822 -0.0265502
44 2 8.9737998 5.39675 1.86722 0.0111725 -0.0120933 -0.0012631
45 2 5.2382698 9.1426601 1.87768 0.0281954 0.0383892 -0.0520924
46 2 9.1603203 9.1597796 1.90715 -0.0543036 -0.053647 -0.0758059
47 2 5.5264201 5.49117 5.4067502 -0.0214968 0.0040306 -0.0112318
48 2 9.1049404 5.2744498 5.6533299 0.0646993 0.0337484 -0.0718589
49 2 5.5605002 9.3674402 5.4112802 -0.062734 -0.0955278 0.0324123
50 2 9.1941996 8.8340502 5.3178601 -0.0308268 0.0058114 0.0434386
51 2 5.1373301 5.3645201 9.0735502 0.0852907 0.0429162 0.0047028
52 2 9.3066998 5.2166901 8.96632 -0.0120261 0.0485899 0.0139961
53 2 5.44524 9.3585396 9.0405703 -0.0097456 -0.0352497 -7.9554802e-04
54 2 9.0223703 9.1262598 9.1961403 0.0533978 -0.0182107 -0.0414087
