ITEM: TIMESTEP
122000
ITEM: NUMBER OF ATOMS
54
ITEM: BOX BOUNDS pp pp pp
-0.0789677 10.986948
-0.0789677 10.986948
-0.0789677 10.986948
ITEM: ATOMS id type x y z fx fy fz
1 1 0.0700933 10.9494 10.7778998 -0.0602151 0.0237056 0.202088
2 1 3.6631801 0.244268 10.8044997 0.02519 -0.274184 0.139332
3 1 10.8365002 3.6382201 10.9497004 0.0504307 0.0096385 0.0114913
4 1 3.6108001 3.4979 -0.0567613 -0.0222838 0.243847 0.0344234
5 1 10.5602999 10.7656002 3.62392 0.223759 0.0721414 -0.0701685
6 1 3.5437401 10.8447 3.5408499 0.0296462 0.0961634 0.0110505
7 1 0.106403 3.4881699 3.49644 -0.0096973 -0.0042742 0.0599884
8 1 3.82811 3.4593401 3.66481 -0.0481798 -0.0167246 -0.010047
9 1 10.8148003 0.0030083 7.2957001 0.276481 -0.0858139 -0.0589188
10 1 3.51312 0.12463 7.2877998 0.0637135 -0.0831586 -0.103787
11 1 0.121146 3.65254 7.3501301 -0.0595179 0.0177084 -0.029363
12 1 3.59898 3.7586601 7.4312601 0.0410133 -0.0833752 -0.0494649
13 1 10.7804003 7.3843098 10.8943996 0.112469 -0.111249 0.0266037
14 1 3.39328 7.4521699 10.8497 0.0172663 -0.002403 -0.0189072
15 1 10.9431 7.15692 3.6310001 -0.0068501 0.0457606 0.0047581
16 1 3.3858199 7.3381901 3.31705 0.0929938 -0.0506328 0.0962718
17 1 10.9301004 7.43011 7.3154101 0.0845112 -0.0099354 -0.0543428
18 1 3.5798099 7.2623301 7.1202598 0.0202513 0.103338 0.018294
19 1 7.3004899 0.0420235 -0.0543075 0.0487229 -0.164546 -0.0289732
20 1 7.28092 3.4568999 0.0797253 0.0359691 0.102284 -0.0761775
21 1 7.2014799 10.8943996 3.56791 -0.104289 -0.0143921 -0.0406819
22 1 7.4777498 3.4431801 3.7339599 0.0277452 0.0307204 0.017404
23 1 7.5400501 0.138521 7.1171799 -0.333988 -0.174662 0.209631
24 1 7.48626 3.8081801 7.4113999 -0.0362212 -0.0833138 -0.0070779
25 1 7.0876398 7.14081 10.9566002 0.0139569 0.0159812 -0.0076645
26 1 7.2164202 7.17664 3.70942 0.0049495 0.0201755 -0.0650517
27 1 7.40486 7.3074098 7.1912098 -0.108489 0.096109 0.0351634
28 2 1.80872 1.63518 1.82967 -0.0075073 0.0079531 -0.0210557
29 2 1.76033 1.74251 5.4788199 -0.0093822 0.0083726 -0.0218493
30 2 1.80511 1.5874501 9.08148 -0.0743552 0.124183 -0.016239
31 2 1.69347 5.53336 1.76087 -0.0160176 -0.0453674 -0.0524449
32 2 1.74167 9.3632498 1.78548 -0.0515808 -0.0353426 -0.051538
33 2 2.1277599 5.4696203 5.2824998 -0.0827995 -0.0394226 -0.0010727
34 2 1.65512 9.2753496 5.27492 -0.0096486 -0.0259115 0.0384538
35 2 1.63361 5.6357799 9.2879105 0.0016433 -0.038013 -0.0357633
36 2 1.61351 9.2717104 9.0810299 0.0674741 -0.0559232 -0.0600789
37 2 5.6141801 1.7622401 1.77712 -0.0579097 -0.0284014 0.0367845
38 2 9.1885405 1.66335 1.85866 -0.0032429 0.0157862 -0.0327746
39 2 5.7333699 1.74505 5.5126601 -0.0759186 0.0306197 -0.009557
40 2 9.1825104 1.77906 5.70612 0.112876 0.175745 -0.172908
41 2 5.64538 1.62861 9.0746098 1.6372701e-06 0.0618486 -0.0351287
42 2 9.3767595 1.56992 9.2416201 -0.0981659 0.0972112 -0.0045428
43 2 5.6936698 5.1440201 1.93568 -0.0427895 0.0481282 -0.0098669
44 2 9.1977997 5.3745899 2.0190201 -0.0276211 -0.0112513 -0.0502213
45 2 5.3535099 8.82053 1.7091201 0.0315107 0.0677821 -0.004291
46 2 9.1414003 8.8579502 1.55293 -0.0862184 0.0859875 0.0926388
47 2 5.38377 5.3635702 5.3357902 0.033766 0.0163965 0.0370195
48 2 9.3349505 5.5188999 5.5542102 -0.0202657 -0.039335 -0.0128444
49 2 5.3761401 9.2932701 5.3982601 0.0041948 -0.0314219 0.0292786
50 2 8.9982406 9.2618399 5.4425202 -0.0162957 -0.101547 0.0410404
51 2 5.4091902 5.4643002 8.9430504 0.0238053 0.0353306 0.0525855
52 2 9.0813503 5.7386899 9.0200796 0.0320479 -0.058408 0.0536132
53 2 5.0939102 9.3428202 9.1002798 0.059908 -0.0427191 -0.0180491
54 2 9.1934204 9.08706 9.1300898 -0.0668463 0.0588104 -0.0170628
