ITEM: TIMESTEP
196000
ITEM: NUMBER OF ATOMS
54
ITEM: BOX BOUNDS pp pp pp
-0.0514436 10.959424
-0.0514436 10.959424
-0.0514436 10.959424
ITEM: ATOMS id type x y z fx fy fz
1 1 10.6728001 10.9579 0.015657 0.119474 0.112133 -0.170537
2 1 3.71874 10.7709999 0.0505861 -0.0789977 0.0814652 0.0059937
3 1 10.8785 3.7228301 0.0281293 0.097988 -0.0517293 0.0729028
4 1 3.4737201 3.7316799 10.8316002 0.0746804 -0.122549 0.0974772
5 1 10.8311997 10.7783003 3.3843901 0.0465375 0.0973863 0.082644
6 1 3.6370299 -0.0492148 3.5663901 -0.0138368 0.064929 -0.0105858
7 1 0.190632 3.38902 3.8092599 -0.034175 0.0548685 -0.0324968
8 1 3.9391602 3.7747801 3.3850501 -0.112629 0.0572404 0.0907429
9 1 -0.0285711 0.0688575 7.2824102 -0.0263126 -0.105097 -0.0037007
10 1 3.6073699 10.8265 7.6034003 0.0227937 0.0682677 -0.104251
11 1 10.8104 3.5372801 7.3653302 0.217369 0.180712 -0.197869
12 1 3.44169 3.7509401 7.33563 0.0607911 -0.108766 -0.171148
13 1 0.110751 7.41992 10.8340998 -0.254048 -0.14078 -0.0589316
14 1 3.35235 7.21526 10.7958002 0.315301 0.089029 0.0574867
15 1 0.133805 7.1974702 3.60603 -0.0883549 -0.0030621 -0.162003
16 1 3.6329401 7.4168201 3.7202499 0.0482773 -0.0484221 -0.0795701
17 1 10.7654 7.3695002 6.91534 0.145397 0.0207709 0.256552
18 1 3.51033 7.3162999 7.3217802 -0.0036964 0.0077337 -0.0460597
19 1 7.2135801 10.5923996 0.0772066 0.0749861 0.307442 -0.0409824
20 1 7.3976998 3.7000401 10.8176003 -0.0582003 0.0046283 0.158372
21 1 7.2287102 -0.0093375 3.6965401 -0.0059954 0.0768132 -0.0213415
22 1 7.45856 3.64953 3.69839 -0.0160804 0.0096648 0.0162487
23 1 7.2259402 10.8528004 7.3028202 0.0061802 0.0536675 0.0050854
24 1 7.23737 3.61602 7.4038601 -0.0455075 -0.0153638 -0.116785
25 1 7.22017 7.3182302 10.8788004 0.145971 -0.260124 0.049709
26 1 7.2670202 7.5905299 3.7097099 0.0455758 -0.139017 -0.0040983
27 1 7.3164301 7.24366 7.4490199 -0.0531124 -0.0116836 -0.0720942
28 2 1.73244 2.0107999 1.6808701 0.0312999 -0.0605457 -0.0025103
29 2 1.81747 1.47575 5.4702502 0.0295096 0.0525397 0.0026256
30 2 1.9208602 1.81401 9.0445995 -0.0516717 -0.0119209 0.0407774
31 2 1.8556 5.6879001 1.6725101 -0.0279146 -0.0847637 0.0621373
32 2 1.68197 9.1842003 1.63999 0.0411193 -0.0064387 0.0279028
33 2 1.81123 5.5227299 5.3617602 0.0212049 -0.0323775 0.0320003
34 2 1.82155 9.3471804 5.1272101 -0.0490374 -0.061841 0.0946481
35 2 1.82415 5.3846502 9.0752897 -0.120999 0.0438089 -0.0178433
36 2 1.56098 9.1641102 9.0840797 0.0351513 0.0327768 -0.0351112
37 2 5.3359099 1.7984101 1.87983 0.0729632 -0.0448994 -0.0769236
38 2 8.93297 1.83253 1.7437201 0.0163101 -0.0149315 0.0025488
39 2 5.2702999 1.80776 5.3722301 0.0214446 0.0084978 0.0372083
40 2 9.1359901 1.68549 5.4409099 -0.006806 0.006631 0.0041374
41 2 5.7722402 1.76797 9.4239197 -0.0727424 -0.0533688 -0.0432329
42 2 9.3125496 1.97251 8.96626 -0.161824 -0.180689 0.175551
43 2 5.6634898 5.6633601 1.66886 -0.0412149 -0.0480457 0.0367561
44 2 9.1953697 5.35073 2.03619 0.0146384 0.0393428 -0.0351698
45 2 5.5657001 8.9135304 1.6265301 -0.128566 -0.0077456 0.11666
46 2 9.3695097 8.8600102 1.5083801 -0.120222 -0.0060148 0.117099
47 2 5.5480299 5.69766 5.5871902 -0.0184217 -0.037566 -0.0275127
48 2 9.1271696 5.5102401 5.5199199 -0.0491155 -0.0631791 -0.0498012
49 2 5.21696 9.2628403 5.5438299 0.0423698 -0.0154551 0.0060237
50 2 9.3010101 9.2197905 5.2554002 -0.0736941 0.0116632 0.0342197
51 2 5.2021899 5.35144 9.0717201 0.0779483 0.0529704 0.0103742
52 2 9.3675604 5.2248602 9.16607 -0.089274 0.163498 -0.033203
53 2 5.4600702 8.9012004 9.3297701 -0.0745722 0.0546082 -0.104912
54 2 9.0134001 9.1921701 9.0021 0.0517393 -0.0167122 0.0247878
