ITEM: TIMESTEP
152000
ITEM: NUMBER OF ATOMS
54
ITEM: BOX BOUNDS pp pp pp
-0.062053 10.9700336
-0.062053 10.9700336
-0.062053 10.9700336
ITEM: ATOMS id type x y z fx fy fz
1 1 -0.0510087 0.0830757 -0.0382061 0.0591439 -0.10798 -0.202863
2 1 3.39779 0.0286314 10.7286997 0.0610979 -0.12762 0.195297
3 1 10.9395 3.7714701 0.0211315 0.054547 -0.138203 -0.0299877
4 1 3.51575 3.5302899 0.0869574 0.0692878 0.0781868 -0.0462759
5 1 10.9049998 -0.0235013 3.3812599 0.0732438 -0.0115491 0.132352
6 1 3.65554 -0.0219696 3.6049299 -0.03866 -0.0654617 -0.105395
7 1 10.9448004 3.6998601 3.6515801 0.0344145 -0.0311682 0.0243719
8 1 3.68641 3.52249 3.65152 -0.14873 0.0407092 -0.0381524
9 1 10.9332 0.0682831 7.1618099 0.0899863 -0.0929902 0.106706
10 1 3.7658501 0.0413665 7.2685499 -0.0798203 0.0251243 -0.0672332
11 1 0.199871 3.68659 7.3273301 -0.306348 -0.0408451 -0.036505
12 1 3.4640401 3.7414201 7.2260699 0.281207 0.0129305 -0.0014554
13 1 10.9129 7.25839 0.0020447 -0.026349 0.0814648 -0.023424
14 1 3.6202901 7.02354 0.0944927 -0.0581414 0.092555 -0.0344616
15 1 10.9688998 7.3361201 3.7081599 -0.0020191 6.6048198e-04 -0.002947
16 1 3.4842999 7.07405 3.73594 0.13087 0.121961 -0.0031589
17 1 -0.0391659 7.3162398 7.3480001 -0.0483168 0.0094066 -0.0088783
18 1 3.4603901 7.3262901 7.4674602 0.165962 -0.100241 -0.131725
19 1 7.3907499 0.0211398 -0.0258287 -0.0615439 -0.0184356 -0.134966
20 1 7.4384499 3.68342 0.0772248 -0.0921153 -0.0396746 -0.0851843
21 1 7.3927899 10.8388996 3.4561701 -0.0585283 0.0108332 0.103073
22 1 7.3325501 3.2446201 3.64551 0.0906914 0.0837055 0.0034325
23 1 7.3744102 10.8620006 7.1591802 -0.0091319 0.0446051 0.0208586
24 1 7.1612501 3.4297199 7.3382802 0.042046 0.0106229 -0.0144685
25 1 6.9696298 7.4166002 10.8135004 0.160508 -0.0029922 0.0867122
26 1 7.4398699 7.1585698 3.7016101 -0.101944 -0.0340258 -0.0599177
27 1 7.08112 7.3723502 7.3615599 0.0372051 -0.043708 -0.0701907
28 2 1.82075 1.8848 1.7427401 -0.0457256 -0.0422037 0.0469635
29 2 1.80036 1.75324 5.5367599 0.0085666 0.0202591 -0.0442755
30 2 2.0978501 1.92477 9.01544 -0.180518 -0.0146424 -0.0094755
31 2 1.69409 5.6962199 1.82479 -0.0327455 -0.0969644 0.0189257
32 2 1.53885 9.0549898 1.78652 0.0584031 0.019059 -0.0125651
33 2 1.80663 5.4762001 5.4373203 -0.0522148 -0.0179349 0.0243851
34 2 1.83074 9.54525 5.4851098 -0.0180473 -0.081341 -0.0132287
35 2 1.67114 5.1995602 9.2600403 0.0771758 0.119476 0.0167177
36 2 1.93322 8.9376898 9.0444899 -0.133295 0.140972 0.136187
37 2 5.5628701 1.83883 1.5724501 -0.0322431 -0.0482808 0.0313675
38 2 9.29109 1.60253 1.5420701 -0.100173 0.151255 0.112547
39 2 5.3009801 1.79564 5.1624899 0.084418 -0.0765856 0.145258
40 2 9.3438997 1.6460001 5.45468 -0.0816176 0.0788003 -0.0633688
41 2 5.0767999 1.85578 9.1862297 0.163336 0.0442533 -0.0144891
42 2 9.1901197 1.9139 8.9408398 0.0105241 -0.016009 0.0417445
43 2 5.5608902 5.0285401 2.0518701 0.0075423 0.106867 -0.0627377
44 2 9.1909599 5.24399 1.76026 -0.0297569 0.106137 0.086787
45 2 5.639 9.2286101 1.77062 -0.0797899 -0.0283954 -0.0068063
46 2 8.94621 9.0373697 1.72543 0.0563222 -0.0299724 -0.0288792
47 2 5.65659 5.0962801 5.3445301 -0.0251176 0.0660035 0.0245681
48 2 9.0648003 5.6373501 5.7227898 0.0149791 -0.0536152 -0.0047389
49 2 5.2698002 9.2922802 5.5146299 0.0448504 -0.0681252 -0.0357515
50 2 9.1052103 9.1192999 5.24088 0.0225522 0.0171541 0.0589183
51 2 5.70536 5.3022599 9.1221104 -0.0791159 -0.0040452 0.011199
52 2 9.0710096 5.52839 9.3378096 -5.88061e-04 0.0064957 -0.0519801
53 2 5.3259802 9.4836998 9.1846705 0.0572579 -0.0706212 -0.0043811
54 2 9.3227997 9.1573601 9.0555601 -0.0335414 0.014134 0.0214976
