ITEM: TIMESTEP
132000
ITEM: NUMBER OF ATOMS
54
ITEM: BOX BOUNDS pp pp pp
-0.0559016 10.9638816
-0.0559016 10.9638816
-0.0559016 10.9638816
ITEM: ATOMS id type x y z fx fy fz
1 1 0.140761 10.7100001 10.6926003 -0.001502 0.263816 0.0729301
2 1 3.7217901 10.7739001 10.8696004 -0.211007 0.106277 0.249237
3 1 10.8761998 3.7404201 10.9067002 0.0716107 -0.0479483 0.0877247
4 1 3.53581 3.4770801 -0.0324261 0.0441644 0.123267 0.0493058
5 1 10.8697004 0.0072351 3.7172699 0.0428722 -0.0234516 -0.168786
6 1 3.7799599 0.140462 3.4542799 -0.0582474 -0.0254339 0.0353166
7 1 0.315623 3.6078501 3.76085 -0.431666 0.151576 -0.0199345
8 1 3.5688401 3.77965 3.671 0.244085 -0.0514092 0.0236711
9 1 0.034907 10.8957006 7.1041098 -0.0744993 0.0479627 0.115598
10 1 3.44433 10.8616 7.2596898 0.119782 0.158797 -0.105995
11 1 -0.0536824 3.4847 7.3278599 0.208245 0.080986 -0.133873
12 1 3.7060499 3.7737 7.25663 -0.0685709 -0.112657 -0.0510843
13 1 10.9060002 7.44415 0.0737304 0.0284582 -0.217314 -0.034954
14 1 3.4906199 7.1527901 10.6061001 0.0406955 -0.0169725 0.100267
15 1 10.8515998 7.2620402 3.8471702 -0.141889 -0.016056 -0.236641
16 1 3.1831701 7.3453498 3.5864699 0.207499 0.0103065 -0.0664004
17 1 0.240301 7.2638998 7.1392298 -0.203761 -0.0408296 0.396457
18 1 3.75262 7.3046198 7.0767002 -0.0196924 -0.0528602 0.0698219
19 1 7.4355898 10.9443998 0.0094291 -0.0223805 -0.0259897 -0.0939917
20 1 7.3839798 3.6009901 0.125448 -0.0934838 0.101251 -0.103077
21 1 7.3330202 10.8672 3.52086 -0.0165322 0.115075 0.0671697
22 1 7.24191 3.5910201 3.6756499 0.0498051 0.0048823 0.035732
23 1 7.2143502 10.8500996 7.3274598 0.0444865 0.027032 0.0036439
24 1 7.1564298 3.29387 7.5457101 0.030127 0.0537555 -0.0666845
25 1 7.2609701 7.2452202 0.0181472 -0.013889 -0.0202243 -0.0608601
26 1 7.2027202 7.4858399 3.6484399 -0.0343382 -0.111835 0.0161024
27 1 7.3614898 6.9994998 7.3020101 0.0544658 0.0375307 0.0349771
28 2 1.56018 2.0373399 1.8209501 0.0675344 -0.141799 -0.0882294
29 2 1.6758601 1.8324701 5.3800602 0.125954 -0.102541 0.101573
30 2 2.0239 1.94863 9.2087097 -0.0974833 -0.105403 -0.0916166
31 2 1.83165 5.17799 1.78688 -0.0314985 0.114986 -0.0572962
32 2 1.74454 9.2167997 1.86611 -0.0177958 0.0297379 -0.0264258
33 2 1.77711 5.5571599 5.5587702 0.0719155 -0.110714 -0.0581513
34 2 1.4857201 9.0124197 5.4187102 0.170874 0.147031 -0.0819096
35 2 1.83546 5.1991801 9.0194197 -0.0374904 0.0518032 0.0144975
36 2 2.00669 9.14322 8.9650298 -0.0957262 -0.0802696 0.0261914
37 2 5.4088998 1.99828 1.57133 0.0204067 -0.0728732 0.123209
38 2 8.92484 1.7978701 1.6542501 0.122424 -0.0314843 0.100424
39 2 5.49509 1.82708 5.5499101 -0.0277509 -0.0292692 -0.0261157
40 2 9.2523298 1.7556601 5.5875201 -0.0627791 0.0117043 -0.035663
41 2 5.3613501 1.62377 9.5626297 0.0931107 0.072636 -0.152787
42 2 9.3711996 1.9113802 8.8909798 -0.0961646 -0.209246 0.161919
43 2 5.18889 5.5169001 1.80562 0.0329461 0.0151749 -0.0150807
44 2 9.0755796 5.6368499 2.026 0.0031975 -0.0403298 -0.0234679
45 2 5.5173602 9.0861998 1.58831 -0.0310037 0.0030601 0.0387454
46 2 9.1224003 9.0536804 1.70875 -0.0061915 0.0395082 0.0515124
47 2 5.6357298 5.5200901 5.3540702 -0.043839 -0.0214406 0.0059745
48 2 9.4345598 5.3329802 5.6145201 -0.0725691 -0.0091011 -0.0250196
49 2 5.4930802 9.1342201 5.8379503 0.0308142 0.013908 -0.145202
50 2 9.1599598 9.1402998 5.4906998 -0.0381455 -0.0077807 0.0117864
51 2 5.4156098 5.1810899 9.1094399 0.0367023 0.0628073 0.0599365
52 2 9.1466198 4.96281 8.9452896 -0.0721483 0.174216 0.0367728
53 2 5.2441602 9.3859396 9.1471005 0.193234 -0.192949 -0.14474
54 2 9.2420397 9.4357596 8.9109098 -0.0333674 -0.100906 0.0234905
