ITEM: TIMESTEP
182000
ITEM: NUMBER OF ATOMS
54
ITEM: BOX BOUNDS pp pp pp
-0.1122393 11.0202198
-0.1122393 11.0202198
-0.1122393 11.0202198
ITEM: ATOMS id type x y z fx fy fz
1 1 10.6351996 -0.0748704 -0.0908953 0.183545 0.0055921 -0.0233536
2 1 3.5146201 -0.110797 0.0159788 -0.0140736 6.8260503e-04 -0.0171708
3 1 0.0041255 3.5442801 11.0193005 -0.0871876 0.0387453 0.0340321
4 1 3.6282201 3.4039099 10.8275004 0.0040669 0.0534717 0.111741
5 1 0.118708 10.7687998 3.3537099 -0.191253 0.0923734 0.09579
6 1 3.4374101 10.8072005 3.7534201 0.174295 0.165149 -0.0159127
7 1 10.9314004 3.3817699 3.6556101 0.0088402 0.0317553 0.0306419
8 1 3.50507 3.5562401 3.5221401 0.0443984 -0.0373731 0.0443188
9 1 0.0103158 10.9195004 7.3366499 -0.117297 0.135984 -0.113617
10 1 3.69189 0.0300219 7.2636199 -0.029516 -0.154461 0.0649208
11 1 -0.0426966 3.5957301 7.5226102 -0.0770901 0.155863 -0.181138
12 1 3.6192 3.3864801 7.4257598 -0.0725161 0.172877 -0.125844
13 1 -0.0226353 7.1736302 -0.0078269 -0.0645576 0.0776451 4.6493597e-04
14 1 3.6230099 7.4801302 10.9097996 -0.0779253 -0.114815 0.183263
15 1 -0.0984884 7.2902002 3.50665 0.0279018 -0.0910248 0.0715575
16 1 3.8356099 7.4430299 3.73016 -0.0515241 -0.149259 -0.0752826
17 1 0.0705418 7.5114599 7.4654103 -0.113217 -0.165295 -0.0197805
18 1 3.6236701 7.3100701 7.4057102 -0.00395 0.012362 -0.0138593
19 1 7.3039799 -0.0247083 -0.0415524 -0.0036254 -0.164608 -0.186078
20 1 7.2589798 3.6391301 10.9408998 0.0611372 0.0316149 -0.0989061
21 1 7.5143299 0.0728052 3.8146401 -0.112657 -0.126887 -0.108341
22 1 7.1896901 3.82353 3.4147501 0.0164804 -0.0439189 0.0872825
23 1 7.22016 -0.0267505 7.28969 0.101643 -0.0835556 0.04944
24 1 7.1215801 3.65448 7.1964202 0.151309 0.110527 -0.0467182
25 1 7.1814699 7.4812598 10.9631004 0.0320841 -0.0741169 -0.0286316
26 1 7.4603701 7.4316001 3.5225401 -0.0964862 -0.0688674 0.0305366
27 1 7.3435502 7.4542299 6.97257 0.0418173 -0.0529535 0.140713
28 2 1.4813 1.68009 1.58064 0.0556593 -0.0164397 0.0314804
29 2 1.8245601 1.7776701 5.6038499 -0.0328383 -0.0074896 -0.0385079
30 2 1.4370801 1.75578 8.9939204 0.128205 -0.0881654 0.116384
31 2 1.73217 5.15731 1.86874 -0.0241549 0.0600039 -0.0359407
32 2 1.90209 8.99358 1.94393 0.0207603 -0.0453805 -0.0858654
33 2 1.6505701 5.5215302 5.5666199 0.009703 -0.0125447 -0.0079864
34 2 1.85607 9.0028801 5.6280399 -0.0050992 0.030334 -0.0372302
35 2 1.84071 5.6466899 9.4879904 5.9948698e-04 -0.0745691 -0.0814495
36 2 1.6122101 9.3862896 9.1113701 0.0945156 -0.0308706 0.105232
37 2 5.9204102 1.7063 1.4493001 -0.248921 0.139388 0.21945
38 2 9.0018501 1.7715 2.02301 0.0668938 0.0196896 -0.0825107
39 2 5.5869699 1.81641 5.4454599 -0.0528816 -0.0062813 -0.0408709
40 2 8.9654904 1.77802 5.5330501 0.0900981 0.0738867 0.0598124
41 2 5.7006502 1.84184 8.8524504 -0.0717653 -0.0425161 0.149042
42 2 9.1980696 1.92173 8.97857 -0.0498855 -0.0429085 0.0397218
43 2 5.48909 5.3688698 1.5795701 -0.0565993 0.0489693 -0.0149024
44 2 8.8732004 5.5023999 1.4746 0.0583649 0.0132939 0.0381488
45 2 5.52845 9.3441296 1.76704 -0.0185888 -0.0097222 0.018403
46 2 8.8004399 9.0848103 1.7304 0.134774 0.105571 -0.0604976
47 2 5.1509199 5.5546699 5.6037998 0.0529818 -0.060662 -0.0246014
48 2 9.1637497 5.3957901 5.4031801 0.0072729 0.0029486 0.0031867
49 2 5.4391098 9.1319103 5.5321899 -1.2843501e-04 0.0652938 -0.0070025
50 2 9.3779698 9.2035198 5.3192001 -0.0041909 0.0028737 0.0198253
51 2 5.32657 5.3541098 8.9877502 0.0246419 0.0260977 0.045183
52 2 9.0464401 5.5766602 9.33496 0.0163705 -0.0027264 -0.0416481
53 2 5.2817302 9.0475302 9.3269901 0.0848201 0.134667 -0.119483
54 2 9.0890398 9.2813902 9.3067198 -0.0152499 -0.0402495 -0.0574412
