ITEM: TIMESTEP
168000
ITEM: NUMBER OF ATOMS
54
ITEM: BOX BOUNDS pp pp pp
-0.0955616 11.0035419
-0.0955616 11.0035419
-0.0955616 11.0035419
ITEM: ATOMS id type x y z fx fy fz
1 1 0.0278658 10.8761998 10.9610996 -0.004404 0.120245 0.0525395
2 1 3.8136201 10.9098998 10.8387003 -0.0871151 0.0883363 -0.0433562
3 1 10.9200002 3.38588 0.0560485 -0.0986253 0.179111 -0.201303
4 1 3.55899 3.6898899 10.9193002 -0.0014949 -0.0316737 0.0381632
5 1 -0.047125 -0.0227666 3.70099 0.0827561 -0.0329493 -0.121847
6 1 3.8273499 10.9567004 3.4579501 -0.137273 0.0311809 0.0858844
7 1 10.8254996 3.78262 3.6204901 0.140041 -0.120012 0.0618974
8 1 3.90169 3.6610999 3.5207601 -0.252304 0.058919 -0.126671
9 1 0.0246251 10.8365002 7.17277 -0.0513544 0.0592933 0.082626
10 1 3.64046 -0.0114751 7.1421499 0.0349574 -0.0208304 0.0162072
11 1 -0.0468943 3.63431 7.2700601 -0.0112267 -0.0419801 0.0167265
12 1 3.5848601 3.6183701 7.02986 -0.0174466 0.0135526 0.107348
13 1 -0.0217877 7.1870599 0.0262809 -0.301169 0.057405 -0.02629
14 1 3.2711501 7.2880998 -0.0718933 0.271573 0.0483599 0.0201096
15 1 -0.0809714 7.2883101 3.70781 0.033558 0.0332032 -0.0653162
16 1 3.7173701 7.3832698 3.7062099 -0.182593 -0.0283748 -0.0823433
17 1 -0.0300826 7.2144199 7.1343999 -0.161843 0.157317 0.22863
18 1 3.8626102 7.17454 7.47116 -0.317421 0.115919 -0.0376592
19 1 7.4959698 10.8549996 0.0360418 -0.0222884 0.0635875 0.0034934
20 1 7.4266801 3.67956 10.9307004 -0.0511303 -0.0206345 0.085812
21 1 7.39745 10.8856002 3.70926 -0.0399166 0.0709007 -0.0531603
22 1 7.2574501 3.78809 3.6987601 0.0347913 -0.292677 -0.0178688
23 1 7.2793398 10.9462996 7.4287801 0.025354 -0.0029957 -0.0051042
24 1 7.2232199 3.46262 7.43572 0.0298961 0.0395891 -0.0715919
25 1 7.3572002 7.3154101 -0.0716923 0.0050052 -0.0288152 -0.0016359
26 1 7.2144899 7.0643601 3.69079 0.129894 0.284513 -0.0607325
27 1 7.1072602 7.32197 7.1377902 0.26622 -0.0294928 0.0942616
28 2 1.4495 1.93213 1.63823 0.187435 -0.142642 0.162626
29 2 1.7851501 1.86297 5.3129001 -0.0022276 -0.0052015 -0.0094055
30 2 1.98353 1.7629401 9.1126299 -0.0326888 -0.0053759 -0.0060738
31 2 1.62289 5.4942398 1.59183 0.0449186 -0.0907052 0.115414
32 2 1.79483 9.3619099 1.60428 0.0155253 -0.0335681 0.06701
33 2 1.64924 5.63093 5.7178302 0.165852 -0.129846 -0.154426
34 2 1.86972 9.3725701 5.4101701 0.0194053 -0.0656968 -0.0347426
35 2 1.6255601 5.5186601 9.36726 -0.0043542 -0.0646203 -0.0935009
36 2 1.4629001 9.0296803 9.2571001 0.0938206 -0.0212128 -0.0689819
37 2 5.4843898 1.6182701 1.95368 0.0753782 0.0525494 -0.0894989
38 2 9.16572 1.68029 1.90794 -0.0202236 0.0043248 -0.0055916
39 2 5.40343 2.0624399 5.28755 0.0740433 -0.132342 0.0759845
40 2 9.3221502 1.55609 5.3451901 -0.0629045 0.0722355 0.0687632
41 2 5.4556899 1.90316 9.4098396 0.0156483 -0.0307582 -0.0389975
42 2 9.4530697 1.74421 8.9459896 -0.034173 -0.0278388 0.0287835
43 2 5.5541601 5.7172799 1.84276 -0.0755775 -0.0717954 -0.0923435
44 2 9.0454302 5.3755102 2.09482 0.0149886 0.0825786 -0.154062
45 2 5.10675 9.1641998 1.5666601 0.118143 -0.0960436 0.0337813
46 2 9.4537001 9.1475897 2.0180099 -0.0480457 0.0016713 -0.0648658
47 2 5.2730799 5.6243902 5.3857098 0.0426332 -0.0921369 0.0431535
48 2 8.9716396 5.3467898 5.4359999 0.050166 0.037823 0.0847989
49 2 5.5574098 8.9862204 5.19558 -0.0048386 0.0960282 0.0788091
50 2 8.9813204 9.0474596 5.2203498 0.0655962 -0.0362528 0.0922237
51 2 5.30337 5.3508501 9.1037703 0.0734298 -0.0367316 0.0520595
52 2 9.1934204 5.4173699 9.0463696 -1.98739e-04 0.0162797 0.0053214
53 2 5.5365801 8.97019 9.28261 -5.1422e-05 0.0199707 -0.0176645
54 2 9.4300699 9.2964201 9.2767 -0.0881397 -0.0716931 -0.0573936
