ITEM: TIMESTEP
194000
ITEM: NUMBER OF ATOMS
54
ITEM: BOX BOUNDS pp pp pp
-0.0790205 10.9870006
-0.0790205 10.9870006
-0.0790205 10.9870006
ITEM: ATOMS id type x y z fx fy fz
1 1 -0.0583908 10.9711 10.816 0.0242974 -0.0024662 0.0480648
2 1 3.7502899 10.7582999 0.0742048 0.0072411 -0.0129983 -0.0111227
3 1 10.6395998 3.5780301 0.267846 0.121529 0.0015577 -0.105767
4 1 3.48228 3.3499 10.7216997 0.0479594 0.0707575 0.0592128
5 1 10.9207002 0.0307642 3.36921 0.120576 0.0364152 0.134613
6 1 3.57229 0.0122915 3.75947 -0.0716606 -0.134421 -0.0578009
7 1 10.7812996 3.85772 3.8397602 0.0440079 -0.0025269 -0.0723989
8 1 3.5966401 3.5206599 3.41995 -0.0311446 0.0593444 -0.0214367
9 1 0.0075871 0.108983 7.1795902 -0.0486658 -0.0986486 0.0317811
10 1 3.63078 10.8132 7.4611001 0.0535884 0.0661189 0.0091411
11 1 0.062172 3.55953 7.1887298 -0.0776802 -0.0357667 0.180262
12 1 3.7743101 3.4777501 7.0590301 -0.0739006 -0.0695698 0.0913533
13 1 10.9227 7.2393298 10.9804002 0.0308217 -3.1624601e-05 0.0011405
14 1 3.47821 7.00348 0.221431 0.0077451 0.0214484 -0.182359
15 1 10.8465004 7.6847902 3.5620899 0.336347 -0.375565 -0.236157
16 1 3.5565 7.2823401 3.6236301 -0.0690493 -0.0093401 0.226123
17 1 -0.0600956 7.0732098 7.1387 -0.0138434 0.119241 0.0445916
18 1 3.5990401 7.1535001 7.35254 0.005128 0.016968 0.0393094
19 1 7.34165 10.9241 10.7614002 -0.013373 -7.9474402e-04 0.0494959
20 1 7.1272502 3.7430101 -0.0114175 -0.0369063 -0.0692114 -0.0289728
21 1 7.1655798 0.082178 3.6436701 0.134439 -0.129246 -0.240393
22 1 7.2868199 3.63516 3.6078801 -0.0749344 0.0198914 0.022492
23 1 7.3738299 -0.0442743 7.0060802 0.0182431 -0.028216 0.208881
24 1 7.2770901 3.57353 7.24961 0.0899774 0.0193478 -0.0065625
25 1 7.3429399 7.2673102 -0.0046259 -0.0216676 0.0497674 0.0079615
26 1 7.2867599 7.5443602 3.62201 0.0128862 -0.133828 0.0676852
27 1 7.4195299 7.3371802 7.4457798 -0.0055652 0.0782603 -0.0042134
28 2 1.90139 1.40149 1.53196 -0.034664 0.0691176 0.0435842
29 2 1.85287 1.79889 5.4572101 -0.0170419 -7.3818102e-04 -0.025329
30 2 1.69916 1.7253701 9.2349796 -0.0355304 -0.0366641 -0.0779219
31 2 1.47254 5.4479499 1.88141 0.0111659 -0.0052892 0.0153788
32 2 1.99808 9.0214596 1.90107 -0.0693289 0.0593028 -0.0309284
33 2 1.7689801 5.3152099 5.67133 0.0685017 0.0303328 -0.0971455
34 2 1.74366 9.3712301 5.6510401 0.0048466 -0.0691104 -0.0563549
35 2 1.60241 5.3102102 9.1491203 0.0217084 0.0101343 0.0172767
36 2 1.97482 9.1631203 9.3296099 -0.04808 -0.0504636 -0.0101721
37 2 5.35916 1.71157 1.61716 0.0290046 0.0086909 0.015321
38 2 9.2036305 1.72605 1.97367 -0.123208 0.0507638 -0.0565492
39 2 5.4485102 1.55092 5.2054401 -0.0501911 0.176638 0.169624
40 2 9.1190596 1.65676 5.48629 0.0398863 0.0743699 -0.0565446
41 2 5.69833 1.82633 8.97499 -0.0526391 -0.042008 0.0323065
42 2 9.0776196 1.7506401 9.2857704 0.0209001 0.0371983 -0.0452868
43 2 5.4119201 5.8214002 2.0137 0.089825 -0.13215 -0.0248846
44 2 8.8653498 5.4131999 1.82408 0.0395621 0.0530983 0.0252191
45 2 5.4101901 9.0205603 2.1538701 -0.0496187 0.115783 -0.113461
46 2 9.2131901 9.33183 1.74171 -0.0649515 -0.0126803 -0.0592995
47 2 5.22679 5.3556099 5.4998799 0.0827639 0.0614042 -0.0704514
48 2 8.7589798 5.59199 5.5865898 0.0613486 -0.0364756 -0.0693484
49 2 5.6029301 9.0810499 5.8380299 -0.0698877 -0.0363077 -0.0774688
50 2 9.2439499 9.0337095 5.1108399 -0.234148 0.289756 0.340991
51 2 5.7761202 5.5500498 8.9942102 -0.0847681 -0.0444592 0.0443377
52 2 9.2676697 5.3610201 9.0630302 -0.0192206 -0.0100695 0.0154123
53 2 5.309 8.8557596 9.4657097 0.0167615 -0.0033313 -0.043666
54 2 9.4246502 9.11162 9.1872301 -0.0493918 -0.0133304 -0.0595626
