ITEM: TIMESTEP
116000
ITEM: NUMBER OF ATOMS
54
ITEM: BOX BOUNDS pp pp pp
-0.0911802 10.9991608
-0.0911802 10.9991608
-0.0911802 10.9991608
ITEM: ATOMS id type x y z fx fy fz
1 1 10.8948002 0.0465463 -0.0909241 0.23909 0.0127848 -0.05032
2 1 3.4798401 10.8199997 -0.0114645 -0.0032687 0.131296 -0.027946
3 1 0.149288 3.6076701 10.9820996 -0.188427 0.0123525 0.082559
4 1 3.5757501 3.662 -0.0346135 0.0758893 -0.0511503 -0.0230607
5 1 -0.0505932 0.257769 3.4972899 0.0545885 -0.166751 0.0019746
6 1 3.7652099 -0.0668077 3.48433 -0.0342253 -0.0892291 0.101815
7 1 10.9931002 3.6321399 3.75015 -0.0033654 0.128351 -0.185365
8 1 3.5504401 3.5576401 3.6703501 0.0014203 0.0235674 0.0223677
9 1 10.8108998 10.9764004 7.2557902 0.351169 0.252541 -0.207881
10 1 3.6268001 0.165337 7.3779602 -0.0211853 -0.0900353 -0.0224873
11 1 10.8641996 3.4898801 7.0411601 0.0142944 0.0689164 0.201476
12 1 3.51404 3.7046101 7.3837099 -0.0703882 -0.0668117 -0.0381982
13 1 -0.0159156 7.6942501 10.9804002 -0.0752585 -0.192114 0.0030903
14 1 3.7897401 7.41119 10.8999996 -0.007721 -0.16253 0.0763083
15 1 0.177724 7.4134898 3.71332 -0.11941 0.0171849 -0.0509391
16 1 3.78541 7.2713599 3.47244 -0.0499601 0.0442212 0.054427
17 1 10.7889004 7.3688898 7.2914 0.146646 -0.0915775 -0.0600462
18 1 3.4629901 7.1745801 7.3766799 0.0333016 0.107408 -0.0296476
19 1 7.6336198 10.9432002 0.0457043 -0.263285 -0.0229282 -0.162689
20 1 7.4674802 3.57074 -0.0457475 -0.0518207 0.0201269 -0.0466843
21 1 7.4714599 10.8540002 3.65256 -0.0464869 0.0145355 -0.0504926
22 1 7.197 3.47607 3.57669 0.0662141 0.0678015 0.0243877
23 1 7.4440198 0.0888471 7.2000799 -0.124378 -0.0532765 0.0639968
24 1 7.1408801 3.64202 7.3151598 0.0147356 -0.0233601 0.0087106
25 1 7.4025998 7.2543998 0.152715 0.0430112 -0.0738146 -0.114427
26 1 7.2867298 7.2417102 3.6592901 0.0654599 -0.0222072 0.0489559
27 1 7.2366099 7.2807698 7.4162202 -0.0552357 0.0493886 0.0515306
28 2 2.11113 1.6842901 1.6903301 -0.0815944 0.0324624 0.0187471
29 2 1.8308701 1.73057 5.46486 -0.0080617 0.0030361 -7.8000002e-04
30 2 1.34604 1.86934 9.0388899 0.0982622 -0.0565089 -0.038904
31 2 1.69489 5.3404102 1.80312 0.0182086 0.0378877 0.0153107
32 2 1.8101 8.91673 1.76492 0.0532089 0.0747709 0.0227409
33 2 1.796 5.7401901 5.4310198 0.0038818 -0.0858401 0.0129332
34 2 1.6790101 9.35215 5.5662799 0.0279454 -0.0050665 -0.005561
35 2 1.47784 5.5767298 9.3987503 0.0695994 0.0384002 -0.0776664
36 2 1.89937 8.9098998 9.2606001 -0.010384 0.104233 -0.0946428
37 2 5.5118599 1.71296 1.94679 0.0092391 -0.0012135 -0.085759
38 2 9.1209297 1.6955201 1.56205 0.0514503 0.101751 0.124335
39 2 5.5787702 1.61531 5.2733102 -0.0263236 0.0120522 0.0450548
40 2 9.1547403 1.73364 5.2979498 -0.0284953 0.0133237 0.0136817
41 2 5.5913501 1.57568 9.1489601 0.0050021 0.0413827 0.0421942
42 2 9.2264605 1.87339 9.1013098 -0.0302697 5.1548796e-04 0.0045834
43 2 5.1957402 5.3436298 1.7820801 0.0805632 -0.0023916 -0.0145973
44 2 9.3085899 5.28896 1.75445 -0.0029269 0.0259552 0.0096965
45 2 5.7676602 9.2385903 1.4184901 -0.0997598 0.0070132 0.12519
46 2 9.2789097 9.0752201 1.74422 -0.0038176 0.0202923 0.0689055
47 2 5.3206701 5.4951701 5.5674701 0.0165375 -0.0078139 -0.0214473
48 2 8.9029598 5.4660101 5.75561 0.034555 -0.0046973 -0.0805507
49 2 5.6074801 9.1066504 5.7530399 -0.04084 0.025109 -0.0406875
50 2 9.1676102 9.2164898 5.45541 0.0024695 -0.0383204 -0.0179708
51 2 5.2704101 5.2026401 9.1508999 0.0624355 0.0708049 0.0320968
52 2 9.1871204 5.6454702 9.0533505 -0.0136458 -0.0563423 0.0621618
53 2 5.2986999 9.4118996 9.3575697 0.0951618 -0.0294747 -0.104485
54 2 9.4478598 9.3369703 8.7969904 -0.273805 -0.166011 0.314006
