ITEM: TIMESTEP
154000
ITEM: NUMBER OF ATOMS
54
ITEM: BOX BOUNDS pp pp pp
-0.0885724 10.9965526
-0.0885724 10.9965526
-0.0885724 10.9965526
ITEM: ATOMS id type x y z fx fy fz
1 1 10.8997002 -0.0520255 0.141182 0.125744 0.0724837 -0.156708
2 1 3.73244 10.9286004 0.167974 -0.0376527 0.0955559 -0.137249
3 1 10.6866999 3.5164199 10.9912004 0.182992 -0.0171148 -0.0085037
4 1 3.4122 3.8139 10.8578998 0.105521 -0.160323 0.0188893
5 1 -0.065299 -0.0458646 3.7526701 -0.0115721 -0.048788 -0.0198962
6 1 3.5631101 0.13674 3.59199 0.0408728 -0.010896 0.0882703
7 1 -0.0511858 3.58656 3.60952 -0.0636137 0.0378257 -0.0095209
8 1 3.4749701 4.0061698 3.31703 0.244514 -0.23969 0.258465
9 1 10.7324 10.6745005 7.31252 0.155213 0.276375 0.0660244
10 1 3.91568 -0.0102179 7.4622202 -0.17114 0.0303736 -0.0249911
11 1 0.151096 3.2926901 7.3081398 -0.135972 0.0663484 0.0157716
12 1 3.59163 3.50282 7.0985899 0.0827069 0.0758475 0.0031205
13 1 10.8570004 7.05198 10.7615996 0.0530365 0.0761361 0.0225562
14 1 3.79563 7.3951998 0.0374836 -0.194397 -0.0222841 -0.0519547
15 1 10.8325005 7.3243098 3.53418 0.0594491 0.119978 0.0184734
16 1 3.3256099 7.5348001 3.52892 0.132274 -0.030504 -0.0278853
17 1 10.974 7.44028 7.2176499 0.153161 -0.275012 0.0054169
18 1 3.7320299 7.3310599 7.3403401 -0.0245914 0.0587379 -0.113499
19 1 7.2866502 10.9608002 10.8891002 -0.0304796 0.06737 0.0251403
20 1 7.3878598 3.6032601 -0.0035713 -0.183493 0.0414255 0.0029727
21 1 7.31457 10.9603004 3.6717601 -0.0155055 -0.0516561 -0.0393303
22 1 7.2567601 3.4389601 3.5983601 -0.0124167 0.130109 0.0816455
23 1 7.2114802 10.7371998 7.2557802 0.158204 0.107084 0.0374863
24 1 7.3210402 3.37534 7.5000601 4.58705e-04 0.0167726 -0.103288
25 1 7.09304 7.3899002 10.9246998 0.240207 -0.0903142 0.0975357
26 1 7.1296301 7.3266602 3.8278401 0.0317637 0.0445327 -0.0762494
27 1 7.5738902 7.2049699 7.3347702 -0.270918 0.134276 -0.143585
28 2 1.6536401 1.7082501 1.82091 0.0127822 0.0320191 -0.0223152
29 2 1.76781 1.8923302 5.2725601 0.0318493 -0.0328033 0.0041947
30 2 1.6501401 1.65157 9.3118496 0.027115 -0.0192796 0.010602
31 2 1.86163 5.3786502 1.71426 -0.248727 0.208615 -0.175562
32 2 1.75272 9.2327204 1.57943 -0.0340503 -0.0283272 0.030674
33 2 1.64869 5.7746401 5.31952 0.0124303 -0.0607853 0.0289668
34 2 1.90907 9.05509 5.4056702 -0.0749982 0.101347 0.0881459
35 2 2.165 5.5893603 9.09832 -0.126642 0.052455 -0.0629314
36 2 2.15552 9.3353996 8.9597998 -0.0742959 -0.0385397 0.0592544
37 2 5.5725098 1.81889 1.72895 -0.0362906 -0.0161881 -0.0063165
38 2 8.9672604 1.73894 1.9942 0.068731 -0.026965 -0.0627216
39 2 5.5384898 1.7260701 5.4145699 -0.0104076 -7.99499e-04 0.0156157
40 2 9.0783901 1.57337 5.4549098 0.0072448 0.0328773 0.0280345
41 2 5.4478698 1.92883 9.2779904 -0.024863 -0.0243199 0.0252978
42 2 9.0478296 1.36997 8.9529 0.0230723 0.0536058 0.0467738
43 2 5.5818601 5.7154498 1.93094 -0.01899 -0.0444979 -0.0332408
44 2 9.34828 5.6680799 1.83261 -0.114986 -0.102707 -0.0582445
45 2 5.4580798 9.2338696 1.9032202 0.0233691 -0.0155874 0.0158508
46 2 9.1359196 9.3807697 1.43633 -0.0914176 -0.162786 0.144961
47 2 5.7735801 5.4903598 5.6644802 -0.0613246 -0.0581127 -0.0023496
48 2 9.15588 5.5591402 5.2560201 0.0020306 -0.0518031 0.0365185
49 2 5.45682 9.2599402 5.6002798 -0.0610641 -0.0722111 -0.0861624
50 2 9.0987597 9.0599804 5.6210399 -0.0403667 -0.0070666 -0.134202
51 2 5.42345 5.7101202 8.93637 0.0570829 -0.0998761 0.0761784
52 2 8.8500606 5.4665499 8.9013796 0.190402 -0.178226 0.212468
53 2 5.6420899 9.0689898 9.1481199 -0.0838701 0.0362193 -0.0403682
54 2 9.0086002 9.0235701 9.1632099 0.0318206 0.0190925 0.0317711
