ITEM: TIMESTEP
180000
ITEM: NUMBER OF ATOMS
54
ITEM: BOX BOUNDS pp pp pp
-0.0653511 10.9733316
-0.0653511 10.9733316
-0.0653511 10.9733316
ITEM: ATOMS id type x y z fx fy fz
1 1 10.7764998 -0.0097204 0.0030026 0.082916 -0.0336596 -0.0285177
2 1 3.47769 0.024909 10.9280006 0.082985 0.03207 0.0389707
3 1 0.0437201 3.5571401 -0.0489649 0.0070607 0.0320955 -0.026112
4 1 3.7376399 3.5340901 10.9362002 -0.035777 0.103007 -0.0953425
5 1 -0.0598414 -0.0603406 3.6527901 -0.0434322 0.0460543 -0.070739
6 1 3.4879501 -0.0435127 3.4900899 0.128367 0.0886758 0.078541
7 1 0.0717711 3.7368901 3.4851699 -0.196807 -0.0829326 0.041592
8 1 3.4112201 3.7964101 3.4365301 0.430799 -0.0768548 0.325026
9 1 10.8516998 -0.0133157 7.1979599 0.213091 -0.295467 0.110021
10 1 3.67872 10.9716998 7.1083999 -0.0370286 0.0078016 0.0419807
11 1 10.7686997 3.3343599 7.3407302 0.0183278 0.290314 -0.0667899
12 1 3.4127 3.62796 7.3070102 0.0371878 0.0294801 -0.0017236
13 1 0.207833 7.3745899 0.0773957 -0.220737 0.0329742 0.0328225
14 1 3.54138 7.3536101 0.0769212 0.252921 0.0513919 -0.0739392
15 1 10.9306002 7.1775398 3.6768899 -0.0199171 0.0836329 -0.0194623
16 1 3.4718101 7.6238399 3.5320599 0.0814827 -0.180456 0.108621
17 1 10.8600998 7.2891002 7.5015502 0.104513 -0.0037432 -0.101072
18 1 3.6837299 7.1972299 7.3330598 -0.061005 0.0318798 0.0017025
19 1 7.30826 -0.0401029 0.0111762 -0.0738452 -0.0081663 0.0122028
20 1 7.4182701 3.5302701 -0.0205599 -0.0193081 0.0354766 -0.0306784
21 1 7.2270198 -0.0246727 3.93496 0.0018369 -0.0951613 -0.146831
22 1 7.2370701 3.4177201 3.70577 0.0069359 0.0599962 -0.0686224
23 1 7.3488498 -0.0321624 7.3663502 -0.0781347 -0.0643411 0.0143926
24 1 7.0444598 3.78194 7.2669702 0.103951 -0.0724034 -0.0182096
25 1 7.5461703 7.29002 10.9635 -0.0955763 -0.065529 -0.0711338
26 1 7.2548499 7.15803 3.54665 0.0236845 0.16534 0.0766907
27 1 7.2239499 7.3412099 7.2153401 0.0374603 0.0123059 3.0148098e-05
28 2 1.98234 1.87725 2.0243101 -0.154658 -0.059699 -0.16045
29 2 1.88598 2.11836 5.3101301 -0.047198 -0.0952352 0.0207274
30 2 1.63757 1.77483 8.8511802 0.0489869 -0.0469985 0.0806016
31 2 2.1422501 5.4229002 1.78429 -0.221359 0.193017 -0.180702
32 2 1.75654 9.2414398 1.84134 -0.0524478 0.0262841 -0.0486508
33 2 1.52643 5.4398699 5.4246602 0.0505017 0.0127298 0.0608491
34 2 1.6562901 9.2593203 5.3365502 0.0149059 -0.0289548 0.0534789
35 2 1.84376 5.60604 9.6122904 0.0104866 -0.102849 -0.152436
36 2 2.0011001 9.4335499 9.1945801 -0.0951427 -0.101459 -0.0794695
37 2 5.16359 1.92625 1.73426 0.10996 -0.0716089 0.0648569
38 2 9.2246103 1.93568 1.8332401 -0.0077416 -0.0346479 0.0177925
39 2 5.44767 1.82822 5.5050702 -0.0415519 0.0027261 0.0053037
40 2 9.24508 1.5550601 5.6284299 -0.141527 0.119452 -0.171113
41 2 5.5890599 1.77983 8.9228002 -0.0509276 -0.0014488 0.0583215
42 2 9.1314602 1.58741 8.9344102 -0.0402206 0.0478139 0.138689
43 2 5.7220302 5.55233 1.9011102 -0.120418 -0.104178 -0.114978
44 2 9.0829201 5.3891502 1.80793 0.0274561 -0.0030059 -0.0060238
45 2 5.5806899 9.0182505 1.59609 -0.014104 0.0263422 0.0323965
46 2 8.9958802 8.9663898 1.7225601 0.0685727 0.0679744 0.0668772
47 2 5.3571801 5.3756399 5.2937002 -0.0234235 0.0217952 0.0059115
48 2 8.7799998 5.4221702 5.2655001 0.0903844 -0.0246497 0.0697708
49 2 5.38764 9.1081104 5.4751001 0.0107304 -0.010273 -0.0153021
50 2 9.2354899 9.0946503 5.2287898 -0.0362966 -0.0126554 0.0545643
51 2 5.5949102 5.3824401 9.1437597 -0.0523644 0.0572277 0.0634999
52 2 9.25352 5.53229 9.14781 -0.03517 -0.0624609 0.0303622
53 2 5.5748501 9.1383696 9.1302996 -0.0227879 4.90095e-04 0.0127321
54 2 9.1065397 9.0265999 9.0648098 -0.0065986 0.0604905 0.0289706
