ITEM: TIMESTEP
192000
ITEM: NUMBER OF ATOMS
54
ITEM: BOX BOUNDS pp pp pp
-0.0550131 10.9629936
-0.0550131 10.9629936
-0.0550131 10.9629936
ITEM: ATOMS id type x y z fx fy fz
1 1 10.8571998 0.222538 10.7686997 0.110473 -0.198567 0.107588
2 1 3.6610101 10.9508 10.8239002 -0.0133025 0.0384721 0.0863793
3 1 0.0716758 3.59215 0.228152 -0.0921825 0.133706 -0.0436024
4 1 3.6199501 3.5132101 10.8954 0.140824 0.145638 -0.051501
5 1 0.139686 -0.0519591 3.5091 -0.0710335 0.0248718 0.0120124
6 1 3.6329701 0.0902047 3.51983 0.004695 -0.100554 -0.0102455
7 1 0.0344631 3.6259799 3.7931099 -0.0511571 -0.0237393 -0.0900232
8 1 3.8401402 3.55022 3.5376799 -0.0775403 0.12281 0.0309781
9 1 10.9200002 10.8726998 7.0937099 -0.0835562 0.0538523 0.0477522
10 1 3.33163 -0.043276 7.4131999 0.0596462 0.0253569 -0.0599442
11 1 0.0318164 3.56773 7.3652101 -0.0303778 0.0172798 0.0455603
12 1 3.79722 3.5739601 7.2718101 -0.0969138 0.006577 -0.0384495
13 1 10.8704996 7.4152002 10.6664 0.0623751 -0.02995 0.263671
14 1 3.47561 7.3599801 10.6926003 0.0071645 -0.0473854 0.129222
15 1 10.8877002 7.1863899 3.6166301 0.15451 0.09404 0.0226696
16 1 3.5956199 7.4543901 3.86009 0.0053431 -0.0491694 -0.224117
17 1 10.8247004 7.3800202 7.2919698 0.205998 -0.205742 -0.162687
18 1 3.5817001 7.2170301 7.22018 -0.0300096 -0.0442553 0.124063
19 1 7.2985001 10.8059998 0.0818519 -0.0043848 0.113284 -0.0619292
20 1 7.4073501 3.7639501 10.9441004 -0.0542318 -0.0330511 0.0245913
21 1 7.3783202 10.7472 3.5804501 -0.0301891 0.0403686 0.0898204
22 1 7.3436499 3.84554 3.7159601 -0.0077725 -0.202853 -0.0795825
23 1 6.9461598 -0.0053377 7.3789702 0.0732157 -0.137762 -0.0252143
24 1 7.2897101 3.37344 7.2736502 0.0664622 0.158194 0.0069079
25 1 7.44347 7.38942 -0.0019155 -0.110489 -0.0658674 -0.0080711
26 1 7.4129501 7.1654301 3.8048799 -0.130589 0.120844 -0.134325
27 1 7.4064498 7.2526598 7.2055101 -0.153905 -0.0511227 0.0898193
28 2 2.0602601 2.00983 1.61285 -0.0754233 -0.137784 0.126768
29 2 1.7337101 1.97685 5.4250202 0.066767 -0.0694783 0.0313186
30 2 1.80544 1.86555 9.1745396 -0.011317 -0.006448 -0.018085
31 2 1.81576 5.62114 1.93345 0.0181334 -0.0170232 -0.0349255
32 2 1.76904 9.4408703 1.55719 0.0025907 -0.0587397 -0.0012666
33 2 1.76024 5.5310798 5.2508202 0.0276104 -0.0190107 0.0757293
34 2 1.81996 9.0630598 5.68607 -0.0571795 0.0082319 -0.0638453
35 2 1.7160601 5.2087998 9.2448998 0.0132835 0.0516865 -0.0218942
36 2 1.51613 9.1083002 9.1721602 0.0861124 0.0929689 -0.076392
37 2 5.4815798 1.78249 1.7452101 0.0243419 -0.0082814 -0.0218696
38 2 8.7312899 1.84807 1.9019002 0.0743151 -0.0015455 -0.0094553
39 2 5.31428 1.6077 5.3408499 0.0527146 0.0335363 0.0433207
40 2 9.1670799 1.72287 5.6375199 -0.016244 8.9940702e-04 -0.0597307
41 2 5.51369 1.91737 9.1094399 -0.0283142 -0.0330476 0.0669802
42 2 9.0815401 1.6876301 9.2379904 -0.0969152 0.0882866 -0.100358
43 2 5.2105599 5.6642299 1.70604 0.0283634 -0.0096992 1.42636e-04
44 2 9.2340098 5.8030401 1.8309701 -0.0497815 -0.120848 -0.0831826
45 2 5.35496 8.9945202 1.69537 -0.0036202 0.0100676 0.0242016
46 2 9.36022 9.1847496 1.8240201 -0.0142767 -0.0101414 -0.0268864
47 2 5.47645 5.4632101 5.50492 -0.0074931 -0.0016059 0.00273
48 2 9.1520596 5.19138 5.53542 0.0327668 0.0638877 0.0510674
49 2 4.9751602 9.23627 5.67482 0.13661 0.0527074 -0.021966
50 2 9.2323799 8.86201 5.3038502 -0.0152239 0.115817 0.0366132
51 2 5.2849002 5.5192499 9.0771904 0.0554491 -0.0112272 0.015164
52 2 9.26682 5.4553199 9.3459902 -0.0338944 -0.0516203 -0.0825868
53 2 5.4513698 9.1402102 9.3299599 0.0248698 -0.0262307 -0.0676284
54 2 9.1167402 8.9784804 8.7851696 -0.0873166 0.159365 0.124694
